                               Psi4 1.2.1 release

  ==> Input File <==

--------------------------------------------------------------------------
molecule water {
0 1
O
H 1 0.99
H 1 0.99 2 106.0
}

set {
    basis sto-3g
    print_basis true
    print_mos true
    cubeprop_tasks ['orbitals', 'density']
    cubic_grid_spacing [0.5, 0.5, 0.5]
    cubic_grid_overage [3, 1.5, 2.4]
}

mp2_e, scf_wfn = energy('mp2', return_wfn=True)
cubeprop(scf_wfn)

--------------------------------------------------------------------------

    Molecular point group: c2v

    Geometry (in Angstrom), charge = 0, multiplicity = 1:

       Center              X                  Y                   Z               Mass
    ------------   -----------------  -----------------  -----------------  -----------------
         O            0.000000000000     0.000000000000    -0.066678531529    15.994914619560
         H            0.000000000000    -0.790649154947     0.529118341392     1.007825032070
         H            0.000000000000     0.790649154947     0.529118341392     1.007825032070

  Charge       = 0
  Multiplicity = 1
  Basis Set: STO-3G
    Blend: STO-3G
  Basis Set: (STO-3G AUX)
    Blend: DEF2-SVP-JKFIT

    Orbital Energies [Eh]
    ---------------------

    Doubly Occupied:

       1A1   -20.243976     2A1    -1.250662     1B2    -0.603166
       3A1    -0.445470     1B1    -0.388215

  @DF-RHF Final Energy:   -74.96441713218326

   => Energetics <=

    Nuclear Repulsion Energy =              8.8870062258783413
    One-Electron Energy =                -121.8398687190952501
    Two-Electron Energy =                  37.9884453610336408
    Total Energy =                        -74.9644171321832715

  Dipole Moment: [D]
     X:     0.0000      Y:     0.0000      Z:     1.6732     Total:     1.6732

  Basis Set: (STO-3G AUX)
    Blend: DEF2-QZVPP-RI
	 Reference Energy          =     -74.9644171321832573 [Eh]
	 Singles Energy            =      -0.0000000000000000 [Eh]
	 Same-Spin Energy          =      -0.0021865372482756 [Eh]
	 Opposite-Spin Energy      =      -0.0358629201406502 [Eh]
	 Correlation Energy        =      -0.0380494573889258 [Eh]
	 Total Energy              =     -75.0024665895721796 [Eh]

	 ================> DF-SCS-MP2 Energies <==================
	-----------------------------------------------------------
	 SCS Same-Spin Scale       =       0.3333333333333333 [-]
	 SCS Opposite-Spin Scale   =       1.2000000000000000 [-]
	 SCS Same-Spin Energy      =      -0.0007288457494252 [Eh]
	 SCS Opposite-Spin Energy  =      -0.0430355041687802 [Eh]
	 SCS Correlation Energy    =      -0.0437643499182054 [Eh]
	 SCS Total Energy          =     -75.0081814821014632 [Eh]
	-----------------------------------------------------------

  Basis Set: STO-3G
    Blend: STO-3G
*** Psi4 exiting successfully. Buy a developer a beer!
