 Output coordinates in angstroms (scale by  1.889725989 to convert to a.u.)

  No.       Tag          Charge          X              Y              Z
 ---- ---------------- ---------- -------------- -------------- --------------
    1 C                    6.0000     0.27053273    -1.36846738     0.00000000
    2 C                    6.0000     1.32037565    -0.44960880     0.00000000
    3 C                    6.0000     1.04983558     0.91861252     0.00000000
    4 C                    6.0000    -0.27053273     1.36846738     0.00000000
    5 C                    6.0000    -1.32037565     0.44960880     0.00000000
    6 C                    6.0000    -1.04983558    -0.91861252     0.00000000
    7 H                    1.0000     2.36120442    -0.80445651     0.00000000
    8 H                    1.0000     1.87728066     1.64292672     0.00000000
    9 H                    1.0000    -2.36120442     0.80445651     0.00000000
   10 H                    1.0000    -1.87728066    -1.64292672     0.00000000
   11 C                    6.0000    -0.56945042     2.87934244     0.00000000
   12 C                    6.0000     0.38613543     3.79853150     0.00000000
   13 H                    1.0000    -1.63783991     3.13375483     0.00000000
   14 H                    1.0000     0.17334345     4.87598630     0.00000000
   15 H                    1.0000     1.45452493     3.54411910     0.00000000
   16 C                    6.0000     0.56945042    -2.87934244     0.00000000
   17 C                    6.0000    -0.38613543    -3.79853150     0.00000000
   18 H                    1.0000     1.63783991    -3.13375483     0.00000000
   19 H                    1.0000    -0.17334345    -4.87598630     0.00000000
   20 H                    1.0000    -1.45452493    -3.54411910     0.00000000

         Total DFT energy =     -382.346192785903

                       DFT Final Molecular Orbital Analysis
                       ------------------------------------

 Vector    1  Occ=2.000000D+00  E=-9.743481D+00  Symmetry=bu

 Vector    2  Occ=2.000000D+00  E=-9.743420D+00  Symmetry=ag

 Vector    3  Occ=2.000000D+00  E=-9.732221D+00  Symmetry=bu

 Vector    4  Occ=2.000000D+00  E=-9.732219D+00  Symmetry=ag

 Vector    5  Occ=2.000000D+00  E=-9.731734D+00  Symmetry=bu

 Vector    6  Occ=2.000000D+00  E=-9.731715D+00  Symmetry=ag

 Vector    7  Occ=2.000000D+00  E=-9.730548D+00  Symmetry=bu

 Vector    8  Occ=2.000000D+00  E=-9.730435D+00  Symmetry=ag

 Vector    9  Occ=2.000000D+00  E=-9.716193D+00  Symmetry=bu

 Vector   10  Occ=2.000000D+00  E=-9.716193D+00  Symmetry=ag

 Vector   11  Occ=2.000000D+00  E=-7.436955D-01  Symmetry=ag

 Vector   12  Occ=2.000000D+00  E=-6.838018D-01  Symmetry=bu

 Vector   13  Occ=2.000000D+00  E=-6.513055D-01  Symmetry=ag

 Vector   14  Occ=2.000000D+00  E=-6.362163D-01  Symmetry=bu

 Vector   15  Occ=2.000000D+00  E=-6.039857D-01  Symmetry=bu

 Vector   16  Occ=2.000000D+00  E=-5.265734D-01  Symmetry=ag

 Vector   17  Occ=2.000000D+00  E=-5.032442D-01  Symmetry=ag

 Vector   18  Occ=2.000000D+00  E=-4.763649D-01  Symmetry=bu

 Vector   19  Occ=2.000000D+00  E=-4.588019D-01  Symmetry=ag

 Vector   20  Occ=2.000000D+00  E=-4.119758D-01  Symmetry=ag

 Vector   21  Occ=2.000000D+00  E=-3.896282D-01  Symmetry=bu

 Vector   22  Occ=2.000000D+00  E=-3.621642D-01  Symmetry=bu

 Vector   23  Occ=2.000000D+00  E=-3.523550D-01  Symmetry=bu

 Vector   24  Occ=2.000000D+00  E=-3.494113D-01  Symmetry=ag

 Vector   25  Occ=2.000000D+00  E=-3.296564D-01  Symmetry=bu

 Vector   26  Occ=2.000000D+00  E=-3.118259D-01  Symmetry=bu

 Vector   27  Occ=2.000000D+00  E=-3.042015D-01  Symmetry=ag

 Vector   28  Occ=2.000000D+00  E=-2.885248D-01  Symmetry=au

 Vector   29  Occ=2.000000D+00  E=-2.636081D-01  Symmetry=bu

 Vector   30  Occ=2.000000D+00  E=-2.536261D-01  Symmetry=ag

 Vector   31  Occ=2.000000D+00  E=-2.406815D-01  Symmetry=ag

 Vector   32  Occ=2.000000D+00  E=-2.275913D-01  Symmetry=bg

 Vector   33  Occ=2.000000D+00  E=-1.825058D-01  Symmetry=au

 Vector   34  Occ=2.000000D+00  E=-1.689859D-01  Symmetry=bg

 Vector   35  Occ=2.000000D+00  E=-1.342867D-01  Symmetry=bg

 Vector   36  Occ=0.000000D+00  E= 1.821009D-02  Symmetry=au

 Vector   37  Occ=0.000000D+00  E= 5.623612D-02  Symmetry=au

 Vector   38  Occ=0.000000D+00  E= 7.692713D-02  Symmetry=bg

 Vector   39  Occ=0.000000D+00  E= 1.389119D-01  Symmetry=au

 Vector   40  Occ=0.000000D+00  E= 2.298119D-01  Symmetry=bg

 Vector   41  Occ=0.000000D+00  E= 2.727970D-01  Symmetry=ag

 Vector   42  Occ=0.000000D+00  E= 2.828097D-01  Symmetry=bu

 Vector   43  Occ=0.000000D+00  E= 3.166174D-01  Symmetry=bu

 Vector   44  Occ=0.000000D+00  E= 3.220578D-01  Symmetry=ag

 Vector   45  Occ=0.000000D+00  E= 3.619584D-01  Symmetry=bu

 Vector   46  Occ=0.000000D+00  E= 3.649508D-01  Symmetry=ag

 Vector   47  Occ=0.000000D+00  E= 3.708950D-01  Symmetry=bu

 Vector   48  Occ=0.000000D+00  E= 3.927483D-01  Symmetry=ag

 Vector   49  Occ=0.000000D+00  E= 4.158431D-01  Symmetry=bu

 Vector   50  Occ=0.000000D+00  E= 4.413289D-01  Symmetry=ag

 Vector   51  Occ=0.000000D+00  E= 4.827924D-01  Symmetry=ag

 Vector   52  Occ=0.000000D+00  E= 5.140780D-01  Symmetry=bu

 Vector   53  Occ=0.000000D+00  E= 5.298831D-01  Symmetry=ag

 Vector   54  Occ=0.000000D+00  E= 5.518001D-01  Symmetry=bu

 Vector   55  Occ=0.000000D+00  E= 5.677044D-01  Symmetry=bu

 Vector   56  Occ=0.000000D+00  E= 5.859086D-01  Symmetry=ag

 Vector   57  Occ=0.000000D+00  E= 6.323417D-01  Symmetry=ag

 Vector   58  Occ=0.000000D+00  E= 6.813199D-01  Symmetry=bu

 Vector   59  Occ=0.000000D+00  E= 7.418130D-01  Symmetry=ag

 Vector   60  Occ=0.000000D+00  E= 7.504621D-01  Symmetry=bu

     Multipole analysis of the density
     ---------------------------------

     L   x y z        total         alpha         beta         nuclear
     -   - - -        -----         -----         ----         -------
     0   0 0 0     -0.000000    -35.000000    -35.000000     70.000000

     1   1 0 0     -0.000000     -0.000000     -0.000000      0.000000
     1   0 1 0      0.000000      0.000000      0.000000     -0.000000
     1   0 0 1      0.000000      0.000000      0.000000      0.000000

     2   2 0 0    -37.042933   -140.938740   -140.938740    244.834546
     2   1 1 0      0.093267     -3.589298     -3.589298      7.271864
     2   1 0 1      0.000000      0.000000      0.000000      0.000000
     2   0 2 0    -37.549650   -744.885499   -744.885499   1452.221348
     2   0 1 1      0.000000      0.000000      0.000000      0.000000

 Total times  cpu:        1.3s     wall:        1.4s
