                         Program Version 3.0.3 - RELEASE   -
|  1> ! b3lyp sto-3g nori noautostart md
|  2>
|  3> %md
|  4>  dt 25
|  5>  maxstep 35
|  6>  init_velocities zero
|  7>  thermo 0
|  8>  end
|  9>
| 10> * xyz 0 1
| 11>  C                  0.27867948   -1.36683162    0.00000000
| 12>  C                  1.32303041   -0.44173575    0.00000000
| 13>  C                  1.04434506    0.92484978    0.00000000
| 14>  C                 -0.27867948    1.36683162    0.00000000
| 15>  C                 -1.32303041    0.44173575    0.00000000
| 16>  C                 -1.04434506   -0.92484978    0.00000000
| 17>  H                  2.36595443   -0.79037726    0.00000000
| 18>  H                  1.86746094    1.65407997    0.00000000
| 19>  H                 -2.36595443    0.79037726    0.00000000
| 20>  H                 -1.86746094   -1.65407997    0.00000000
| 21>  C                 -0.58659169    2.87589931    0.00000000
| 22>  C                  0.36350188    3.80076420    0.00000000
| 23>  H                 -1.65647768    3.12394312    0.00000000
| 24>  H                  0.14429560    4.87693235    0.00000000
| 25>  H                  1.43338788    3.55272039    0.00000000
| 26>  C                  0.58659169   -2.87589931    0.00000000
| 27>  C                 -0.36350188   -3.80076420    0.00000000
| 28>  H                  1.65647768   -3.12394312    0.00000000
| 29>  H                 -0.14429560   -4.87693235    0.00000000
| 30>  H                 -1.43338788   -3.55272039    0.00000000
| 31> *
| 32>
| 33>                          ****END OF INPUT****
 Total Charge           Charge          ....    0
 Multiplicity           Mult            ....    1
 Number of Electrons    NEL             ....   70
FINAL SINGLE POINT ENERGY      -382.042725254864
FINAL SINGLE POINT ENERGY      -382.042900000223
FINAL SINGLE POINT ENERGY      -382.043394998054
FINAL SINGLE POINT ENERGY      -382.044130734642
FINAL SINGLE POINT ENERGY      -382.044998566974
FINAL SINGLE POINT ENERGY      -382.045886071382
FINAL SINGLE POINT ENERGY      -382.046696770809
FINAL SINGLE POINT ENERGY      -382.047358439992
FINAL SINGLE POINT ENERGY      -382.047821162692
FINAL SINGLE POINT ENERGY      -382.048052085865
FINAL SINGLE POINT ENERGY      -382.047410052987
FINAL SINGLE POINT ENERGY      -382.047449518773
FINAL SINGLE POINT ENERGY      -382.047417154671
FINAL SINGLE POINT ENERGY      -382.047356379132
FINAL SINGLE POINT ENERGY      -382.047321492765
FINAL SINGLE POINT ENERGY      -382.047360943848
FINAL SINGLE POINT ENERGY      -382.047499452061
FINAL SINGLE POINT ENERGY      -382.047726893768
FINAL SINGLE POINT ENERGY      -382.047999337149

CARTESIAN COORDINATES (ANGSTROEM)
---------------------------------
  C      0.267922   -1.389438    0.000000
  C      1.336040   -0.464029   -0.000000
  C      1.061686    0.915374   -0.000000
  C     -0.267922    1.389438    0.000000
  C     -1.336040    0.464029   -0.000000
  C     -1.061686   -0.915374   -0.000000
  H      2.379411   -0.809983   -0.000000
  H      1.896185    1.629425   -0.000000
  H     -2.379411    0.809983   -0.000000
  H     -1.896185   -1.629425   -0.000000
  C     -0.568504    2.886738    0.000000
  C      0.347387    3.855023    0.000000
  H     -1.639094    3.131466   -0.000000
  H      0.028740    4.904886   -0.000000
  H      1.429013    3.678229    0.000000
  C      0.568504   -2.886738    0.000000
  C     -0.347387   -3.855023    0.000000
  H      1.639094   -3.131466    0.000000
  H     -0.028740   -4.904886    0.000000
  H     -1.429013   -3.678229    0.000000

 Multiplicity           Mult            ....    1
 Number of Electrons    NEL             ....   70
 Basis Dimension        Dim             ....   60

ORBITAL ENERGIES
----------------

  NO   OCC          E(Eh)            E(eV)
   0   2.0000     -10.014770      -272.5157
   1   2.0000     -10.014712      -272.5142
   2   2.0000     -10.003441      -272.2075
   3   2.0000     -10.003440      -272.2075
   4   2.0000     -10.003034      -272.1964
   5   2.0000     -10.003006      -272.1956
   6   2.0000     -10.001814      -272.1632
   7   2.0000     -10.001705      -272.1602
   8   2.0000      -9.988161      -271.7917
   9   2.0000      -9.988161      -271.7917
  10   2.0000      -0.806819       -21.9547
  11   2.0000      -0.748965       -20.3804
  12   2.0000      -0.715404       -19.4671
  13   2.0000      -0.696741       -18.9593
  14   2.0000      -0.664848       -18.0914
  15   2.0000      -0.580780       -15.8038
  16   2.0000      -0.556101       -15.1323
  17   2.0000      -0.527029       -14.3412
  18   2.0000      -0.506626       -13.7860
  19   2.0000      -0.455272       -12.3886
  20   2.0000      -0.433232       -11.7888
  21   2.0000      -0.407253       -11.0819
  22   2.0000      -0.395566       -10.7639
  23   2.0000      -0.391267       -10.6469
  24   2.0000      -0.371916       -10.1204
  25   2.0000      -0.349135        -9.5004
  26   2.0000      -0.346594        -9.4313
  27   2.0000      -0.321042        -8.7360
  28   2.0000      -0.303911        -8.2698
  29   2.0000      -0.290257        -7.8983
  30   2.0000      -0.279298        -7.6001
  31   2.0000      -0.258141        -7.0244
  32   2.0000      -0.210383        -5.7248
  33   2.0000      -0.191020        -5.1979
  34   2.0000      -0.153077        -4.1654
  35   0.0000       0.048268         1.3134
  36   0.0000       0.092214         2.5093
  37   0.0000       0.117905         3.2084
  38   0.0000       0.184740         5.0270
  39   0.0000       0.276867         7.5339

MULLIKEN ATOMIC CHARGES
-----------------------
   0 C :   -0.004545
   1 C :   -0.077691
   2 C :   -0.076523
   3 C :   -0.004545
   4 C :   -0.077691
   5 C :   -0.076523
   6 H :    0.078723
   7 H :    0.078731
   8 H :    0.078723
   9 H :    0.078731
  10 C :   -0.074870
  11 C :   -0.156622
  12 H :    0.077171
  13 H :    0.078299
  14 H :    0.077326
  15 C :   -0.074870
  16 C :   -0.156622
  17 H :    0.077171
  18 H :    0.078299
  19 H :    0.077326
Sum of atomic charges:   -0.0000000

LOEWDIN ATOMIC CHARGES
----------------------
   0 C :    0.003152
   1 C :   -0.044597
   2 C :   -0.044121
   3 C :    0.003152
   4 C :   -0.044597
   5 C :   -0.044121
   6 H :    0.043008
   7 H :    0.043581
   8 H :    0.043008
   9 H :    0.043581
  10 C :   -0.037339
  11 C :   -0.093870
  12 H :    0.041353
  13 H :    0.044329
  14 H :    0.044505
  15 C :   -0.037339
  16 C :   -0.093870
  17 H :    0.041353
  18 H :    0.044329
  19 H :    0.044505

  Mayer bond orders larger than 0.1
B(  0-C ,  1-C ) :   1.3754 B(  0-C ,  5-C ) :   1.3794 B(  0-C , 15-C ) :   1.0434
B(  1-C ,  2-C ) :   1.4536 B(  1-C ,  4-C ) :   0.1036 B(  1-C ,  6-H ) :   0.9615
B(  2-C ,  3-C ) :   1.3794 B(  2-C ,  5-C ) :   0.1061 B(  2-C ,  7-H ) :   0.9586
B(  3-C ,  4-C ) :   1.3754 B(  3-C , 10-C ) :   1.0434 B(  4-C ,  5-C ) :   1.4536
B(  4-C ,  8-H ) :   0.9615 B(  5-C ,  9-H ) :   0.9586 B( 10-C , 11-C ) :   1.9211
B( 10-C , 12-H ) :   0.9597 B( 11-C , 13-H ) :   0.9684 B( 11-C , 14-H ) :   0.9650
B( 15-C , 16-C ) :   1.9211 B( 15-C , 17-H ) :   0.9597 B( 16-C , 18-H ) :   0.9684
B( 16-C , 19-H ) :   0.9650

FINAL SINGLE POINT ENERGY      -382.048252415185
                             ****ORCA TERMINATED NORMALLY****
TOTAL RUN TIME: 0 days 0 hours 12 minutes 5 seconds 765 msec
