                         Program Version 3.0.0 -  RELEASE  -
|  1> # Scan dihedral restricted B3LYP/sto-3g calc
|  2> ! RKS STO-3G B3LYP UseSym Opt
|  3>
|  4> %output
|  5>  PrintLevel Normal
|  6> end
|  7>
|  8> % geom
|  9>   Scan
| 10>     D 4 3 10 11 = -180.0, 180.0, 13
| 11>   end
| 12> end
| 13>
| 14> * xyz 0 1
| 15> C          1.43509       -0.04780       -0.00010
| 16> C          0.73780        1.19228       -0.00002
| 17> C         -0.66368        1.24151       -0.00001
| 18> C         -1.43515        0.04767        0.00006
| 19> C         -0.73787       -1.19242       -0.00002
| 20> C          0.66362       -1.24165       -0.00002
| 21> H          1.31386        2.12801        0.00015
| 22> H         -1.16822        2.21645        0.00014
| 23> H         -1.31393       -2.12815        0.00006
| 24> H          1.16816       -2.21659        0.00006
| 25> C         -2.93303        0.04344       -0.00002
| 26> C         -3.73731        1.12067        0.00003
| 27> H         -3.38578       -0.95970       -0.00014
| 28> H         -4.82871        1.01517       -0.00009
| 29> H         -3.35133        2.14657       -0.00007
| 30> C          2.93296       -0.04343        0.00003
| 31> C          3.73745       -1.12051       -0.00004
| 32> H          3.38556        0.95978       -0.00003
| 33> H          4.82882       -1.01477       -0.00007
| 34> H          3.35169       -2.14649        0.00009
| 35> *
| 36>
| 37>
| 38>                          ****END OF INPUT****
 Total Charge           Charge          ....    0
 Multiplicity           Mult            ....    1
 Number of Electrons    NEL             ....   70
FINAL SINGLE POINT ENERGY      -382.050784655913
                    ***********************HURRAY********************
FINAL SINGLE POINT ENERGY      -382.050785361751
FINAL SINGLE POINT ENERGY      -382.039997720831
FINAL SINGLE POINT ENERGY      -382.048738626275
FINAL SINGLE POINT ENERGY      -382.049399992002
FINAL SINGLE POINT ENERGY      -382.049456012308
FINAL SINGLE POINT ENERGY      -382.049468239788
FINAL SINGLE POINT ENERGY      -382.049471005759
                    ***********************HURRAY********************
FINAL SINGLE POINT ENERGY      -382.049471230387
FINAL SINGLE POINT ENERGY      -382.035321891012
FINAL SINGLE POINT ENERGY      -382.049474926263
FINAL SINGLE POINT ENERGY      -382.049488160120
FINAL SINGLE POINT ENERGY      -382.049489027861
FINAL SINGLE POINT ENERGY      -382.041312294541
FINAL SINGLE POINT ENERGY      -382.050033293638
FINAL SINGLE POINT ENERGY      -382.050747121766
FINAL SINGLE POINT ENERGY      -382.050783576552
FINAL SINGLE POINT ENERGY      -382.050789359796
FINAL SINGLE POINT ENERGY      -382.050791066130

CARTESIAN COORDINATES (ANGSTROEM)
---------------------------------
  C     -0.086961    0.166201    1.423763
  C      0.565295    1.130888    0.606372
  C      0.652446    0.970490   -0.784183
  C      0.088818   -0.167148   -1.423474
  C     -0.563270   -1.131936   -0.606060
  C     -0.650476   -0.971509    0.784483
  H      1.008082    2.018443    1.079324
  H      1.163383    1.735502   -1.383220
  H     -1.005834   -2.019612   -1.078992
  H     -1.161104   -1.736669    1.383591
  C      0.152673   -0.388435   -2.903518
  C      0.727245    0.419242   -3.811852
  H     -0.330325   -1.316292   -3.245870
  H      0.721246    0.168632   -4.879268
  H      1.225410    1.356885   -3.539306
  C     -0.151155    0.387663    2.903800
  C     -0.731390   -0.417013    3.811238
  H      0.335919    1.313120    3.246848
  H     -0.725548   -0.166262    4.878619
  H     -1.234010   -1.352014    3.537893

 Multiplicity           Mult            ....    1
 Number of Electrons    NEL             ....   70
 Basis Dimension        Dim             ....   60

ORBITAL ENERGIES
----------------

  NO   OCC          E(Eh)            E(eV)
   0   2.0000     -10.016272      -272.5566
   1   2.0000     -10.016225      -272.5553
   2   2.0000     -10.004127      -272.2261
   3   2.0000     -10.004126      -272.2261
   4   2.0000     -10.002820      -272.1906
   5   2.0000     -10.002815      -272.1904
   6   2.0000     -10.002078      -272.1704
   7   2.0000     -10.001940      -272.1666
   8   2.0000      -9.988409      -271.7984
   9   2.0000      -9.988409      -271.7984
  10   2.0000      -0.805722       -21.9248
  11   2.0000      -0.750234       -20.4149
  12   2.0000      -0.714234       -19.4353
  13   2.0000      -0.696028       -18.9399
  14   2.0000      -0.663820       -18.0635
  15   2.0000      -0.585031       -15.9195
  16   2.0000      -0.555170       -15.1069
  17   2.0000      -0.527973       -14.3669
  18   2.0000      -0.506488       -13.7822
  19   2.0000      -0.453649       -12.3444
  20   2.0000      -0.435642       -11.8544
  21   2.0000      -0.406906       -11.0725
  22   2.0000      -0.394224       -10.7274
  23   2.0000      -0.392421       -10.6783
  24   2.0000      -0.370242       -10.0748
  25   2.0000      -0.347430        -9.4540
  26   2.0000      -0.343526        -9.3478
  27   2.0000      -0.320786        -8.7290
  28   2.0000      -0.307516        -8.3679
  29   2.0000      -0.289064        -7.8658
  30   2.0000      -0.283761        -7.7215
  31   2.0000      -0.259864        -7.0713
  32   2.0000      -0.208801        -5.6818
  33   2.0000      -0.191413        -5.2086
  34   2.0000      -0.149451        -4.0668
  35   0.0000       0.041021         1.1163
  36   0.0000       0.093918         2.5556
  37   0.0000       0.114205         3.1077
  38   0.0000       0.185777         5.0552
  39   0.0000       0.276017         7.5108

MULLIKEN ATOMIC CHARGES
-----------------------
   0 C :   -0.004404
   1 C :   -0.076339
   2 C :   -0.077013
   3 C :   -0.004408
   4 C :   -0.076337
   5 C :   -0.077019
   6 H :    0.077383
   7 H :    0.079018
   8 H :    0.077385
   9 H :    0.079018
  10 C :   -0.076259
  11 C :   -0.154418
  12 H :    0.076705
  13 H :    0.079088
  14 H :    0.076233
  15 C :   -0.076251
  16 C :   -0.154421
  17 H :    0.076708
  18 H :    0.079088
  19 H :    0.076243
Sum of atomic charges:   -0.0000000

LOEWDIN ATOMIC CHARGES
----------------------
   0 C :    0.003759
   1 C :   -0.043727
   2 C :   -0.044147
   3 C :    0.003754
   4 C :   -0.043725
   5 C :   -0.044154
   6 H :    0.041730
   7 H :    0.043532
   8 H :    0.041732
   9 H :    0.043533
  10 C :   -0.038860
  11 C :   -0.091304
  12 H :    0.041038
  13 H :    0.044860
  14 H :    0.043114
  15 C :   -0.038854
  16 C :   -0.091306
  17 H :    0.041041
  18 H :    0.044860
  19 H :    0.043124

  Mayer bond orders larger than 0.1
B(  0-C ,  1-C ) :   1.3625 B(  0-C ,  5-C ) :   1.3654 B(  0-C , 15-C ) :   1.0665
B(  1-C ,  2-C ) :   1.4652 B(  1-C ,  6-H ) :   0.9614 B(  2-C ,  3-C ) :   1.3654
B(  2-C ,  5-C ) :   0.1019 B(  2-C ,  7-H ) :   0.9596 B(  3-C ,  4-C ) :   1.3625
B(  3-C , 10-C ) :   1.0665 B(  4-C ,  5-C ) :   1.4653 B(  4-C ,  8-H ) :   0.9614
B(  5-C ,  9-H ) :   0.9596 B( 10-C , 11-C ) :   1.9012 B( 10-C , 12-H ) :   0.9591
B( 11-C , 13-H ) :   0.9693 B( 11-C , 14-H ) :   0.9665 B( 15-C , 16-C ) :   1.9012
B( 15-C , 17-H ) :   0.9591 B( 16-C , 18-H ) :   0.9693 B( 16-C , 19-H ) :   0.9665

FINAL SINGLE POINT ENERGY      -382.050791260991

DIPOLE MOMENT
-------------
                                X             Y             Z
Electronic contribution:      0.00515      -0.00280       0.00091
Nuclear contribution   :     -0.00520       0.00285      -0.00082
                        -----------------------------------------
Total Dipole Moment    :     -0.00005       0.00005       0.00009
                        -----------------------------------------
Magnitude (a.u.)       :      0.00011
Magnitude (Debye)      :      0.00027

                             ****ORCA TERMINATED NORMALLY****
TOTAL RUN TIME: 0 days 1 hours 3 minutes 36 seconds 401 msec
