 Q-Chem 4.2, Q-Chem, Inc., Pleasanton, CA (2014).
 Q-Chem 4.2.0 for Intel X86 EM64T Linux

User input:
--------------------------------------------------------------
$comment
 Divinylbenzene, Born-Oppenheimer molecular dynamics, RB3LYP/STO-3G
$end

$rem
 jobtype = aimd
 method = b3lyp
 basis = sto-3g
 aimd_init_veloc = thermal
 aimd_temp = 298
 time_step = 25
 aimd_steps = 35
$end

$molecule
 0 1
 C                  0.27867948   -1.36683162    0.00000000
 C                  1.32303041   -0.44173575    0.00000000
 C                  1.04434506    0.92484978    0.00000000
 C                 -0.27867948    1.36683162    0.00000000
 C                 -1.32303041    0.44173575    0.00000000
 C                 -1.04434506   -0.92484978    0.00000000
 H                  2.36595443   -0.79037726    0.00000000
 H                  1.86746094    1.65407997    0.00000000
 H                 -2.36595443    0.79037726    0.00000000
 H                 -1.86746094   -1.65407997    0.00000000
 C                 -0.58659169    2.87589931    0.00000000
 C                  0.36350188    3.80076420    0.00000000
 H                 -1.65647768    3.12394312    0.00000000
 H                  0.14429560    4.87693235    0.00000000
 H                  1.43338788    3.55272039    0.00000000
 C                  0.58659169   -2.87589931    0.00000000
 C                 -0.36350188   -3.80076420    0.00000000
 H                  1.65647768   -3.12394312    0.00000000
 H                 -0.14429560   -4.87693235    0.00000000
 H                 -1.43338788   -3.55272039    0.00000000
$end
--------------------------------------------------------------

   11    -382.3003619983      9.11E-09 Convergence criterion met
 Total energy in the final basis set = -382.3003619983

                    Orbital Energies (a.u.)
 --------------------------------------------------------------

 Alpha MOs
 -- Occupied --
-10.018 -10.018 -10.008 -10.008 -10.007 -10.007 -10.006 -10.005
 -9.992  -9.992  -0.818  -0.755  -0.721  -0.704  -0.670  -0.585
 -0.561  -0.532  -0.512  -0.462  -0.439  -0.410  -0.400  -0.397
 -0.376  -0.358  -0.349  -0.330  -0.305  -0.295  -0.281  -0.263
 -0.216  -0.198  -0.160

          Ground-State Mulliken Net Atomic Charges

     Atom                 Charge (a.u.)
  ----------------------------------------
      1 C                    -0.004104
      2 C                    -0.079244
      3 C                    -0.077214
      4 C                    -0.004104
      5 C                    -0.079244
      6 C                    -0.077214
      7 H                     0.078761
      8 H                     0.079722
      9 H                     0.078761
     10 H                     0.079722
     11 C                    -0.075269
     12 C                    -0.156380
     13 H                     0.078811
     14 H                     0.078363
     15 H                     0.076553
     16 C                    -0.075269
     17 C                    -0.156380
     18 H                     0.078811
     19 H                     0.078363
     20 H                     0.076553
  ----------------------------------------
  Sum of atomic charges =     0.000000

                    Cartesian Multipole Moments
 -----------------------------------------------------------------
    Charge (ESU x 10^10)
                 0.0000
    Dipole Moment (Debye)
         X       0.0000      Y       0.0000      Z      -0.0000
       Tot       0.0000
    Quadrupole Moments (Debye-Ang)
        XX     -50.1432     XY       0.1106     YY     -50.9644
        XZ       0.0000     YZ      -0.0000     ZZ     -58.5742

   14    -382.2991022280      4.44E-09 Convergence criterion met
 Total energy in the final basis set = -382.2991022280
   14    -382.2969456051      4.16E-09 Convergence criterion met
 Total energy in the final basis set = -382.2969456051
   14    -382.2948441310      3.53E-09 Convergence criterion met
 Total energy in the final basis set = -382.2948441310
   14    -382.2936638749      3.19E-09 Convergence criterion met
 Total energy in the final basis set = -382.2936638749
   14    -382.2937692400      3.15E-09 Convergence criterion met
 Total energy in the final basis set = -382.2937692400
   14    -382.2948718095      3.30E-09 Convergence criterion met
 Total energy in the final basis set = -382.2948718095
   14    -382.2961894336      3.58E-09 Convergence criterion met
 Total energy in the final basis set = -382.2936331831
   14    -382.2946573326      4.71E-09 Convergence criterion met
 Total energy in the final basis set = -382.2946573326
   14    -382.2964800140      4.14E-09 Convergence criterion met
 Total energy in the final basis set = -382.2964800140
   14    -382.2980789112      4.76E-09 Convergence criterion met
 Total energy in the final basis set = -382.2980789112
   14    -382.2986590590      4.95E-09 Convergence criterion met
 Total energy in the final basis set = -382.2986590590
   14    -382.2981405441      4.81E-09 Convergence criterion met
 Total energy in the final basis set = -382.2981405441
   14    -382.2971013469      4.59E-09 Convergence criterion met
 Total energy in the final basis set = -382.2971013469

             Standard Nuclear Orientation (Angstroms)
    I     Atom           X                Y                Z
 ----------------------------------------------------------------
    1      C       0.2486487243    -1.3995517121    -0.0260016539
    2      C       1.3177172419    -0.4868803556     0.0003134091
    3      C       1.0556039020     0.9092734410     0.0324094588
    4      C      -0.2648853852     1.3875291898     0.0635053526
    5      C      -1.3518715871     0.4726188099     0.0256227649
    6      C      -1.0964916485    -0.9029076621     0.0033090249
    7      H       2.3817037437    -0.8041767171    -0.0702901466
    8      H       1.8903914571     1.6342649836    -0.0491120908
    9      H      -2.3973260585     0.8071053012     0.0225265338
   10      H      -1.9249572100    -1.5883206401     0.0976116483
   11      C      -0.5390906687     2.9005205913     0.0358239687
   12      C       0.3848475064     3.8460779651     0.0393522878
   13      H      -1.5604852385     3.2045940311    -0.1292224230
   14      H       0.0233806900     4.9005237905    -0.0847475764
   15      H       1.4648144654     3.7286710281     0.1750450199
   16      C       0.5508241042    -2.8755487232    -0.0450907428
   17      C      -0.3228809637    -3.8634770252    -0.1113793949
   18      H       1.6798880377    -3.0734687895     0.0692673216
   19      H       0.0430388622    -4.9175745678    -0.0249011905
   20      H      -1.3911423249    -3.7446236148    -0.2188852930
 ----------------------------------------------------------------

   14    -382.2963551757      4.28E-09 Convergence criterion met
 Total energy in the final basis set = -382.2963551757
 Total job time:  190.40s(wall), 190.16s(cpu)
        *  Thank you very much for using Q-Chem.  Have a nice day.  *
