 Q-Chem 4.2, Q-Chem, Inc., Pleasanton, CA (2014).
 Q-Chem 4.2.0 for Intel X86 Linux

User input:
--------------------------------------------------------------
$comment
Divinylbenzene, frequencies (analytic), RB3LYP/STO-3G
$end

$rem
jobtype = freq
method = b3lyp
basis = sto-3g
$end

$molecule
0 1
C             -1.4152533224   0.2302217854   0.0000000000
C              1.4152533224  -0.2302217854   0.0000000000
C             -0.4951331558   1.3144608674   0.0000000000
C              0.4951331558  -1.3144608674   0.0000000000
C              0.8894090436   1.0909493743   0.0000000000
C             -0.8894090436  -1.0909493743   0.0000000000
H             -0.8795511985   2.3437343748   0.0000000000
H              0.8795511985  -2.3437343748   0.0000000000
H              1.5779041557   1.9450061275   0.0000000000
H             -1.5779041557  -1.9450061275   0.0000000000
C              2.8845844962  -0.5210893778   0.0000000000
C             -2.8845844962   0.5210893778   0.0000000000
H              3.1403356810  -1.5919605685   0.0000000000
H             -3.1403356810   1.5919605685   0.0000000000
C              3.8800428103   0.3822535424   0.0000000000
C             -3.8800428103  -0.3822535424   0.0000000000
H              3.6946765858   1.4624389570   0.0000000000
H             -3.6946765858  -1.4624389570   0.0000000000
H              4.9316453546   0.0711049543   0.0000000000
H             -4.9316453546  -0.0711049543   0.0000000000
$end
--------------------------------------------------------------

             Standard Nuclear Orientation (Angstroms)
    I     Atom           X                Y                Z
 ----------------------------------------------------------------
    1      C       1.4130874143     0.2431624904     0.0000000000
    2      C      -1.4130874143    -0.2431624904     0.0000000000
    3      C       0.4830843885     1.3189365745     0.0000000000
    4      C      -0.4830843885    -1.3189365745     0.0000000000
    5      C      -0.8993545914     1.0827651191     0.0000000000
    6      C       0.8993545914    -1.0827651191     0.0000000000
    7      H       0.8580679199     2.3516846249     0.0000000000
    8      H      -0.8580679199    -2.3516846249     0.0000000000
    9      H      -1.5956359656     1.9304860077     0.0000000000
   10      H       1.5956359656    -1.9304860077     0.0000000000
   11      C      -2.8796954734    -0.5474630906     0.0000000000
   12      C       2.8796954734     0.5474630906     0.0000000000
   13      H      -3.1256368923    -1.6206297105     0.0000000000
   14      H       3.1256368923     1.6206297105     0.0000000000
   15      C      -3.8833781934     0.3467330199     0.0000000000
   16      C       3.8833781934    -0.3467330199     0.0000000000
   17      H      -3.7079040184     1.4285694128     0.0000000000
   18      H       3.7079040184    -1.4285694128     0.0000000000
   19      H      -4.9320895300     0.0259747190     0.0000000000
   20      H       4.9320895300    -0.0259747190     0.0000000000
 ----------------------------------------------------------------

   11    -382.3082745715      6.45E-09 Convergence criterion met
 Total energy in the final basis set = -382.3082745715

             Orbital Energies (a.u.) and Symmetries
 --------------------------------------------------------------

 Alpha MOs, Restricted
 -- Occupied --
-10.020 -10.020 -10.008 -10.008 -10.007 -10.007 -10.006 -10.006
  1 Bu    1 Ag    2 Ag    2 Bu    3 Ag    3 Bu    4 Bu    4 Ag
 -9.992  -9.992  -0.809  -0.754  -0.718  -0.700  -0.667  -0.589
  5 Ag    5 Bu    6 Ag    6 Bu    7 Ag    7 Bu    8 Bu    8 Ag
 -0.559  -0.531  -0.510  -0.458  -0.439  -0.411  -0.398  -0.396
  9 Ag    9 Bu   10 Ag   11 Ag   10 Bu   11 Bu   12 Bu   12 Ag
 -0.374  -0.351  -0.347  -0.324  -0.311  -0.293  -0.287  -0.263
 13 Bu   14 Bu   13 Ag    1 Au   15 Bu   14 Ag   15 Ag    1 Bg
 -0.212  -0.195  -0.153
  2 Au    2 Bg    3 Bg

 Beta MOs, Restricted
 -- Occupied --
-10.020 -10.020 -10.008 -10.008 -10.007 -10.007 -10.006 -10.006
  1 Bu    1 Ag    2 Ag    2 Bu    3 Ag    3 Bu    4 Bu    4 Ag
 -9.992  -9.992  -0.809  -0.754  -0.718  -0.700  -0.667  -0.589
  5 Ag    5 Bu    6 Ag    6 Bu    7 Ag    7 Bu    8 Bu    8 Ag
 -0.559  -0.531  -0.510  -0.458  -0.439  -0.411  -0.398  -0.396
  9 Ag    9 Bu   10 Ag   11 Ag   10 Bu   11 Bu   12 Bu   12 Ag
 -0.374  -0.351  -0.347  -0.324  -0.311  -0.293  -0.287  -0.263
 13 Bu   14 Bu   13 Ag    1 Au   15 Bu   14 Ag   15 Ag    1 Bg
 -0.212  -0.195  -0.153
  2 Au    2 Bg    3 Bg

          Ground-State Mulliken Net Atomic Charges

     Atom                 Charge (a.u.)
  ----------------------------------------
      1 C                    -0.004404
      2 C                    -0.004405
      3 C                    -0.076752
      4 C                    -0.076752
      5 C                    -0.077083
      6 C                    -0.077083
      7 H                     0.077995
      8 H                     0.077995
      9 H                     0.079316
     10 H                     0.079316
     11 C                    -0.076366
     12 C                    -0.076366
     13 H                     0.076693
     14 H                     0.076693
     15 C                    -0.154814
     16 C                    -0.154814
     17 H                     0.076117
     18 H                     0.076117
     19 H                     0.079299
     20 H                     0.079299
  ----------------------------------------
  Sum of atomic charges =     0.000000

                    Cartesian Multipole Moments
 -----------------------------------------------------------------
    Charge (ESU x 10^10)
                 0.0000
    Dipole Moment (Debye)
         X       0.0000      Y       0.0000      Z       0.0000
       Tot       0.0000
    Quadrupole Moments (Debye-Ang)
        XX     -50.7269     XY       0.0867     YY     -50.2324
        XZ       0.0000     YZ       0.0000     ZZ     -58.6265

 Frequency:        47.24                  80.80                 152.36
 Force Cnst:      0.0042                 0.0096                 0.0292
 Red. Mass:       3.1573                 2.4971                 2.1376
 IR Intens:        0.031                  0.000                  0.343
 Frequency:       178.92                 262.67                 301.86
 Force Cnst:      0.0643                 0.1318                 0.1272
 Red. Mass:       3.4093                 3.2431                 2.3702
 IR Intens:        0.257                  0.000                  0.000
 Frequency:       408.38                 425.37                 470.34
 Force Cnst:      0.4697                 0.3254                 0.2934
 Red. Mass:       4.7801                 3.0526                 2.2512
 IR Intens:        0.000                  0.086                  5.788
 Frequency:       485.60                 578.67                 659.05
 Force Cnst:      0.4488                 0.5586                 0.5292
 Red. Mass:       3.2304                 2.8314                 2.0678
 IR Intens:        1.930                  0.000                  0.000
 Frequency:       672.02                 709.27                 735.87
 Force Cnst:      1.8326                 0.4388                 1.0163
 Red. Mass:       6.8872                 1.4804                 3.1854
 IR Intens:        0.000                  0.437                  4.355
 Frequency:       811.22                 861.59                 897.07
 Force Cnst:      1.2797                 1.9550                 0.5954
 Red. Mass:       3.3004                 4.4698                 1.2557
 IR Intens:        0.000                  0.000                  0.000
 Frequency:       898.60                 981.66                 981.78
 Force Cnst:      0.8041                 0.7737                 0.7755
 Red. Mass:       1.6901                 1.3627                 1.3656
 IR Intens:       26.389                  0.000                 36.554
 Frequency:      1020.65                1039.06                1072.60
 Force Cnst:      0.7706                 0.8461                 1.9874
 Red. Mass:       1.2556                 1.3302                 2.9319
 IR Intens:        0.000                  0.006                  0.479
 Frequency:      1102.69                1108.72                1108.88
 Force Cnst:      1.0343                 0.7903                 0.7916
 Red. Mass:       1.4437                 1.0911                 1.0927
 IR Intens:        8.926                 13.159                  0.000
 Frequency:      1110.63                1203.80                1263.09
 Force Cnst:      1.0925                 1.1602                 1.1534
 Red. Mass:       1.5032                 1.3588                 1.2271
 IR Intens:        0.000                  1.407                  0.000
 Frequency:      1285.19                1295.91                1350.01
 Force Cnst:      2.2970                 2.8788                 5.4769
 Red. Mass:       2.3604                 2.9094                 5.1005
 IR Intens:        0.101                  0.000                  8.893
 Frequency:      1399.73                1420.63                1426.69
 Force Cnst:      1.6430                 1.5901                 1.5011
 Red. Mass:       1.4233                 1.3372                 1.2517
 IR Intens:        0.000                  8.444                  0.000
 Frequency:      1514.75                1565.29                1574.86
 Force Cnst:      3.4249                 1.8769                 1.8981
 Red. Mass:       2.5335                 1.3002                 1.2990
 IR Intens:       19.109                  0.000                  0.493
 Frequency:      1639.28                1689.70                1737.77
 Force Cnst:      3.9205                 8.6156                 9.9421
 Red. Mass:       2.4762                 5.1217                 5.5879
 IR Intens:       15.379                  0.000                  0.000
 Frequency:      1815.59                1816.58                3399.68
 Force Cnst:      7.7248                 7.6722                 7.2383
 Red. Mass:       3.9774                 3.9461                 1.0629
 IR Intens:        0.000                  1.493                 98.852
 Frequency:      3400.40                3438.13                3438.17
 Force Cnst:      7.2410                 7.6451                 7.6454
 Red. Mass:       1.0629                 1.0977                 1.0977
 IR Intens:        0.000                  3.693                  0.000
 Frequency:      3458.77                3462.27                3477.87
 Force Cnst:      7.6930                 7.7074                 7.8304
 Red. Mass:       1.0914                 1.0913                 1.0988
 IR Intens:        0.732                  0.000                  6.276
 Frequency:      3480.80                3552.24                3552.26
 Force Cnst:      7.8504                 8.3142                 8.3140
 Red. Mass:       1.0997                 1.1183                 1.1183
 IR Intens:        0.000                  0.010                  0.000

 STANDARD THERMODYNAMIC QUANTITIES AT   298.15 K  AND     1.00 ATM

   This Molecule has  0 Imaginary Frequencies
   Zero point vibrational energy:      111.254 kcal/mol

   Atom    1 Element C  Has Mass   12.00000
   Atom    2 Element C  Has Mass   12.00000
   Atom    3 Element C  Has Mass   12.00000
   Atom    4 Element C  Has Mass   12.00000
   Atom    5 Element C  Has Mass   12.00000
   Atom    6 Element C  Has Mass   12.00000
   Atom    7 Element H  Has Mass    1.00783
   Atom    8 Element H  Has Mass    1.00783
   Atom    9 Element H  Has Mass    1.00783
   Atom   10 Element H  Has Mass    1.00783
   Atom   11 Element C  Has Mass   12.00000
   Atom   12 Element C  Has Mass   12.00000
   Atom   13 Element H  Has Mass    1.00783
   Atom   14 Element H  Has Mass    1.00783
   Atom   15 Element C  Has Mass   12.00000
   Atom   16 Element C  Has Mass   12.00000
   Atom   17 Element H  Has Mass    1.00783
   Atom   18 Element H  Has Mass    1.00783
   Atom   19 Element H  Has Mass    1.00783
   Atom   20 Element H  Has Mass    1.00783
   Molecular Mass:   130.078300 amu
   Principal axes and moments of inertia in amu*Bohr^2:
                             1           2           3
    Eigenvalues --      390.81956  2631.73358  3022.55314
          X               0.99999    -0.00450     0.00000
          Y               0.00450     0.99999     0.00000
          Z               0.00000     0.00000     1.00000
   Rotational Symmetry Number is   2
   The Molecule is an Asymmetric Top
   Translational Enthalpy:        0.889 kcal/mol
   Rotational Enthalpy:           0.889 kcal/mol
   Vibrational Enthalpy:        115.054 kcal/mol
   gas constant (RT):             0.592 kcal/mol
   Translational Entropy:        40.502  cal/mol.K
   Rotational Entropy:           28.143  cal/mol.K
   Vibrational Entropy:          23.394  cal/mol.K

   Total Enthalpy:              117.424 kcal/mol
   Total Entropy:                92.039  cal/mol.K

 Total job time:  123.85s(wall), 123.56s(cpu)
        *  Thank you very much for using Q-Chem.  Have a nice day.  *
