 Q-Chem 4.2, Q-Chem, Inc., Pleasanton, CA (2014).
 Q-Chem 4.2.0 for Intel X86 Linux

User input:
--------------------------------------------------------------
$comment
Divinylbenzene, geometry optimization, RB3LYP/STO-3G
$end

$rem
jobtype = opt
method = b3lyp
basis = sto-3g
$end

$molecule
0 1
C                  0.27867948   -1.36683162    0.00000000
C                  1.32303041   -0.44173575    0.00000000
C                  1.04434506    0.92484978    0.00000000
C                 -0.27867948    1.36683162    0.00000000
C                 -1.32303041    0.44173575    0.00000000
C                 -1.04434506   -0.92484978    0.00000000
H                  2.36595443   -0.79037726    0.00000000
H                  1.86746094    1.65407997    0.00000000
H                 -2.36595443    0.79037726    0.00000000
H                 -1.86746094   -1.65407997    0.00000000
C                 -0.58659169    2.87589931    0.00000000
C                  0.36350188    3.80076420    0.00000000
H                 -1.65647768    3.12394312    0.00000000
H                  0.14429560    4.87693235    0.00000000
H                  1.43338788    3.55272039    0.00000000
C                  0.58659169   -2.87589931    0.00000000
C                 -0.36350188   -3.80076420    0.00000000
H                  1.65647768   -3.12394312    0.00000000
H                 -0.14429560   -4.87693235    0.00000000
H                 -1.43338788   -3.55272039    0.00000000
$end
--------------------------------------------------------------

   11    -382.3003620405      9.12E-09 Convergence criterion met
 Total energy in the final basis set = -382.3003620405
   11    -382.3076865486      3.58E-09 Convergence criterion met
 Total energy in the final basis set = -382.3076865486
   10    -382.3082546100      9.63E-09 Convergence criterion met
 Total energy in the final basis set = -382.3082546100
   10    -382.3082947513      1.83E-09 Convergence criterion met
 Total energy in the final basis set = -382.3082947513

             Standard Nuclear Orientation (Angstroms)
    I     Atom           X                Y                Z
 ----------------------------------------------------------------
    1      C       1.4151037316     0.2406820329     0.0000000000
    2      C       0.4841413613     1.3161106497     0.0000000000
    3      C      -0.8985365483     1.0831085167     0.0000000000
    4      C      -1.4151037316    -0.2406820329     0.0000000000
    5      C      -0.4841413613    -1.3161106497     0.0000000000
    6      C       0.8985365483    -1.0831085167     0.0000000000
    7      H       0.8614602370     2.3481183724     0.0000000000
    8      H      -1.5889485473     1.9363087299     0.0000000000
    9      H      -0.8614602370    -2.3481183724     0.0000000000
   10      H       1.5889485473    -1.9363087299     0.0000000000
   11      C      -2.8817028256    -0.5435245999     0.0000000000
   12      C      -3.8846265087     0.3516626028     0.0000000000
   13      H      -3.1252749818    -1.6166790468     0.0000000000
   14      H      -4.9328566421     0.0306817928     0.0000000000
   15      H      -3.7117422113     1.4340347157     0.0000000000
   16      C       2.8817028256     0.5435245999     0.0000000000
   17      C       3.8846265087    -0.3516626028     0.0000000000
   18      H       3.1252749818     1.6166790468     0.0000000000
   19      H       4.9328566421    -0.0306817928     0.0000000000
   20      H       3.7117422113    -1.4340347157     0.0000000000
 ----------------------------------------------------------------

    8    -382.3082955186      6.32E-09 Convergence criterion met
 Total energy in the final basis set = -382.3082955186
 Final energy is   -382.308295518623
 **  OPTIMIZATION CONVERGED  **

             Orbital Energies (a.u.) and Symmetries
 --------------------------------------------------------------

 Alpha MOs, Restricted
 -- Occupied --
-10.020 -10.020 -10.008 -10.008 -10.007 -10.007 -10.006 -10.006
  1 Bu    1 Ag    2 Ag    2 Bu    3 Bu    3 Ag    4 Bu    4 Ag
 -9.992  -9.992  -0.810  -0.754  -0.718  -0.700  -0.667  -0.589
  5 Ag    5 Bu    6 Ag    6 Bu    7 Ag    7 Bu    8 Bu    8 Ag
 -0.559  -0.532  -0.510  -0.457  -0.439  -0.411  -0.398  -0.396
  9 Ag    9 Bu   10 Ag   11 Ag   10 Bu   11 Bu   12 Bu   12 Ag
 -0.374  -0.351  -0.347  -0.325  -0.311  -0.293  -0.287  -0.264
 13 Bu   14 Bu   13 Ag    1 Au   15 Bu   14 Ag   15 Ag    1 Bg
 -0.212  -0.195  -0.153
  2 Au    2 Bg    3 Bg

 Beta MOs, Restricted
 -- Occupied --
-10.020 -10.020 -10.008 -10.008 -10.007 -10.007 -10.006 -10.006
  1 Bu    1 Ag    2 Ag    2 Bu    3 Bu    3 Ag    4 Bu    4 Ag
 -9.992  -9.992  -0.810  -0.754  -0.718  -0.700  -0.667  -0.589
  5 Ag    5 Bu    6 Ag    6 Bu    7 Ag    7 Bu    8 Bu    8 Ag
 -0.559  -0.532  -0.510  -0.457  -0.439  -0.411  -0.398  -0.396
  9 Ag    9 Bu   10 Ag   11 Ag   10 Bu   11 Bu   12 Bu   12 Ag
 -0.374  -0.351  -0.347  -0.325  -0.311  -0.293  -0.287  -0.264
 13 Bu   14 Bu   13 Ag    1 Au   15 Bu   14 Ag   15 Ag    1 Bg
 -0.212  -0.195  -0.153
  2 Au    2 Bg    3 Bg

          Ground-State Mulliken Net Atomic Charges

     Atom                 Charge (a.u.)
  ----------------------------------------
      1 C                    -0.004526
      2 C                    -0.076621
      3 C                    -0.077117
      4 C                    -0.004526
      5 C                    -0.076621
      6 C                    -0.077117
      7 H                     0.077706
      8 H                     0.079206
      9 H                     0.077706
     10 H                     0.079206
     11 C                    -0.076385
     12 C                    -0.154774
     13 H                     0.076890
     14 H                     0.079316
     15 H                     0.076304
     16 C                    -0.076385
     17 C                    -0.154774
     18 H                     0.076890
     19 H                     0.079316
     20 H                     0.076304
  ----------------------------------------
  Sum of atomic charges =     0.000000

                    Cartesian Multipole Moments
 -----------------------------------------------------------------
    Charge (ESU x 10^10)
                 0.0000
    Dipole Moment (Debye)
         X       0.0000      Y       0.0000      Z       0.0000
       Tot       0.0000
    Quadrupole Moments (Debye-Ang)
        XX     -50.7110     XY       0.0680     YY     -50.2259
        XZ       0.0000     YZ       0.0000     ZZ     -58.6253

 Total job time:  36.54s(wall), 36.46s(cpu)
        *  Thank you very much for using Q-Chem.  Have a nice day.  *
