 Q-Chem 4.2, Q-Chem, Inc., Pleasanton, CA (2014).
 Q-Chem 4.2.0 for Intel X86 Linux

User input:
--------------------------------------------------------------
$comment
Water, frequencies (analytic), RB3LYP/STO-3G
with anharmonic corrections via VPT2
$end

$rem
jobtype = freq
method = b3lyp
basis = sto-3g
anhar = true
$end

$molecule
0 1
O
H 1 R1
H 1 R1 2 A1

R1=0.99
A1=106.0
$end
--------------------------------------------------------------

    8     -75.3178467000      6.72E-10 Convergence criterion met
 Total energy in the final basis set = -75.3178467000
 Frequency:      1860.10                3939.13                4272.66
 Force Cnst:      2.2064                 9.5583                11.6524
 Red. Mass:       1.0823                 1.0455                 1.0833
 IR Intens:        5.911                 61.120                 36.761
 Frequency:      1860.10                3939.13                4272.66
 Force Cnst:      2.2064                 9.5583                11.6524
 Red. Mass:       1.0823                 1.0455                 1.0833
 IR Intens:        5.911                 61.120                 36.761
    7     -75.3202362426      2.04E-09 Convergence criterion met
 Total energy in the final basis set = -75.3202362426
    7     -75.3140402686      2.14E-09 Convergence criterion met
 Total energy in the final basis set = -75.3140402686
    7     -75.3099001648      1.94E-09 Convergence criterion met
 Total energy in the final basis set = -75.3099001648
    7     -75.3196261844      1.90E-09 Convergence criterion met
 Total energy in the final basis set = -75.3196261844
    8     -75.3140890362      1.94E-09 Convergence criterion met
 Total energy in the final basis set = -75.3140890362
    8     -75.3140890361      3.31E-09 Convergence criterion met
 Total energy in the final basis set = -75.3140890361
    8     -75.3123396998      2.07E-09 Convergence criterion met
 Total energy in the final basis set = -75.3123396998
    7     -75.3157956587      1.08E-09 Convergence criterion met
 Total energy in the final basis set = -75.3157956587
    8     -75.3165622642      3.21E-09 Convergence criterion met
 Total energy in the final basis set = -75.3165622642
    8     -75.3102496265      3.65E-09 Convergence criterion met
 Total energy in the final basis set = -75.3102496265
    8     -75.3052260778      1.38E-09 Convergence criterion met
 Total energy in the final basis set = -75.3052260778
    8     -75.3166008576      4.78E-09 Convergence criterion met
 Total energy in the final basis set = -75.3166008576

                    Orbital Energies (a.u.)
 --------------------------------------------------------------

 Alpha MOs
 -- Occupied --
-18.843  -0.905  -0.418  -0.231  -0.141

          Ground-State Mulliken Net Atomic Charges

     Atom                 Charge (a.u.)
  ----------------------------------------
      1 O                    -0.309834
      2 H                     0.169687
      3 H                     0.140147
  ----------------------------------------
  Sum of atomic charges =     0.000000

                    Cartesian Multipole Moments
 -----------------------------------------------------------------
    Charge (ESU x 10^10)
                 0.0000
    Dipole Moment (Debye)
         X      -0.0547      Y       0.0000      Z      -1.5532
       Tot       1.5541
    Quadrupole Moments (Debye-Ang)
        XX      -4.3102     XY       0.0000     YY      -6.1574
        XZ      -0.0467     YZ       0.0000     ZZ      -5.4080

             Standard Nuclear Orientation (Angstroms)
    I     Atom           X                Y                Z
 ----------------------------------------------------------------
    1      O       0.0000000000     0.0000000000     0.1191593746
    2      H      -0.7906491549     0.0000000000    -0.4766374983
    3      H       0.7906491549     0.0000000000    -0.4766374983
 ----------------------------------------------------------------

 Frequency:      1860.10                3939.13                4272.66
 Force Cnst:      2.2064                 9.5583                11.6524
 Red. Mass:       1.0823                 1.0455                 1.0833
 IR Intens:        5.911                 61.120                 36.761

 STANDARD THERMODYNAMIC QUANTITIES FOR ANHARMONIC VIBRATION -- VPT2

   Zero point vibrational energy:       13.966 kcal/mol

   Vibrational Enthalpy:         13.967 kcal/mol
   Vibrational Entropy:           0.003  cal/mol.K

   Total Enthalpy:               16.336 kcal/mol
   Total Entropy:                45.246  cal/mol.K

 Total job time:  1.80s(wall), 1.80s(cpu)
        *  Thank you very much for using Q-Chem.  Have a nice day.  *
