 Q-Chem 4.2, Q-Chem, Inc., Pleasanton, CA (2014).
 Q-Chem 4.2.0 for Intel X86 Linux

User input:
--------------------------------------------------------------
$comment
Water, single point, RCIS(D)/STO-3G (5 singlets, 5 triplets)
$end

$rem
method = cis(d)
basis = sto-3g
cis_n_roots = 5
ao2mo_disk = 200
$end

$molecule
0 1
O
H 1 R1
H 1 R1 2 A1

R1=0.99
A1=106.0
$end
--------------------------------------------------------------

             Standard Nuclear Orientation (Angstroms)
    I     Atom           X                Y                Z
 ----------------------------------------------------------------
    1      O       0.0000000000     0.0000000000     0.1191593746
    2      H      -0.7906491549     0.0000000000    -0.4766374983
    3      H       0.7906491549     0.0000000000    -0.4766374983
 ----------------------------------------------------------------

    8     -74.9643287668      5.45E-11 Convergence criterion met
 Total energy in the final basis set = -74.9643287668

               CIS Excitation Energies
 ---------------------------------------------------

 Excited state   1: excitation energy (eV) =   10.1773
    Total energy for state   1:    -74.590320491568
    Multiplicity: Triplet
    Trans. Mom.:  0.0000 X   0.0000 Y   0.0000 Z
    Strength   :  0.0000
    D(  5) --> V(  1) amplitude =  1.0000

 Excited state   2: excitation energy (eV) =   12.2266
    Total energy for state   2:    -74.515007828213
    Multiplicity: Singlet
    Trans. Mom.:  0.0000 X  -0.1058 Y   0.0000 Z
    Strength   :  0.0034
    D(  5) --> V(  1) amplitude =  1.0000

 Excited state   3: excitation energy (eV) =   12.2737
    Total energy for state   3:    -74.513278653532
    Multiplicity: Triplet
    Trans. Mom.:  0.0000 X   0.0000 Y   0.0000 Z
    Strength   :  0.0000
    D(  3) --> V(  2) amplitude =  0.2310
    D(  4) --> V(  1) amplitude =  0.9676

 Excited state   4: excitation energy (eV) =   12.9040
    Total energy for state   4:    -74.490115104890
    Multiplicity: Triplet
    Trans. Mom.:  0.0000 X   0.0000 Y   0.0000 Z
    Strength   :  0.0000
    D(  5) --> V(  2) amplitude =  1.0000

 Excited state   5: excitation energy (eV) =   14.1314
    Total energy for state   5:    -74.445008310664
    Multiplicity: Triplet
    Trans. Mom.:  0.0000 X   0.0000 Y   0.0000 Z
    Strength   :  0.0000
    D(  3) --> V(  1) amplitude =  0.5360
    D(  4) --> V(  2) amplitude =  0.8429

 Excited state   6: excitation energy (eV) =   14.2466
    Total energy for state   6:    -74.440775912108
    Multiplicity: Singlet
    Trans. Mom.:  0.0000 X   0.0000 Y   0.0000 Z
    Strength   :  0.0000
    D(  5) --> V(  2) amplitude =  1.0000

 Excited state   7: excitation energy (eV) =   15.8632
    Total energy for state   7:    -74.381368214424
    Multiplicity: Singlet
    Trans. Mom.:  0.0000 X   0.0000 Y   0.4349 Z
    Strength   :  0.0735
    D(  3) --> V(  2) amplitude = -0.2477
    D(  4) --> V(  1) amplitude =  0.9669

 Excited state   8: excitation energy (eV) =   17.0481
    Total energy for state   8:    -74.337821017881
    Multiplicity: Triplet
    Trans. Mom.:  0.0000 X   0.0000 Y   0.0000 Z
    Strength   :  0.0000
    D(  3) --> V(  1) amplitude =  0.8340
    D(  4) --> V(  2) amplitude = -0.5373

 Excited state   9: excitation energy (eV) =   18.1604
    Total energy for state   9:    -74.296947364576
    Multiplicity: Singlet
    Trans. Mom.:  0.3369 X   0.0000 Y   0.0000 Z
    Strength   :  0.0505
    D(  3) --> V(  1) amplitude = -0.4406
    D(  4) --> V(  2) amplitude =  0.8977

 Excited state  10: excitation energy (eV) =   21.0594
    Total energy for state  10:    -74.190411082533
    Multiplicity: Singlet
    Trans. Mom.:  1.5338 X   0.0000 Y   0.0000 Z
    Strength   :  1.2138
    D(  3) --> V(  1) amplitude =  0.8968
    D(  4) --> V(  2) amplitude =  0.4399

 ---------------------------------------------------

             Orbital Energies (a.u.) and Symmetries
 --------------------------------------------------------------

 Alpha MOs, Restricted
 -- Occupied --
-20.244  -1.251  -0.603  -0.445  -0.388
  1 A1    2 A1    1 B1    3 A1    1 B2

 Beta MOs, Restricted
 -- Occupied --
-20.244  -1.251  -0.603  -0.445  -0.388
  1 A1    2 A1    1 B1    3 A1    1 B2

          Ground-State Mulliken Net Atomic Charges

     Atom                 Charge (a.u.)
  ----------------------------------------
      1 O                    -0.339214
      2 H                     0.169607
      3 H                     0.169607
  ----------------------------------------
  Sum of atomic charges =     0.000000

                    Cartesian Multipole Moments
 -----------------------------------------------------------------
    Charge (ESU x 10^10)
                 0.0000
    Dipole Moment (Debye)
         X       0.0000      Y       0.0000      Z      -1.6735
       Tot       1.6735
    Quadrupole Moments (Debye-Ang)
        XX      -4.2950     XY       0.0000     YY      -6.1213
        XZ       0.0000     YZ       0.0000     ZZ      -5.4175

 Total job time:  0.05s(wall), 0.05s(cpu)
        *  Thank you very much for using Q-Chem.  Have a nice day.  *
