 Output coordinates in angstroms (scale by  1.889725989 to convert to a.u.)

  No.       Tag          Charge          X              Y              Z
 ---- ---------------- ---------- -------------- -------------- --------------
    1 C                    6.0000     0.23680554     1.41416660     0.00000000
    2 C                    6.0000    -0.23680554    -1.41416660     0.00000000
    3 C                    6.0000     1.31675086     0.48901061     0.00000000
    4 C                    6.0000    -1.31675086    -0.48901061     0.00000000
    5 C                    6.0000     1.08679847    -0.89447642     0.00000000
    6 C                    6.0000    -1.08679847     0.89447642     0.00000000
    7 H                    1.0000     2.34780221     0.86863451     0.00000000
    8 H                    1.0000    -2.34780221    -0.86863451     0.00000000
    9 H                    1.0000     1.93764188    -1.58693865     0.00000000
   10 H                    1.0000    -1.93764188     1.58693865     0.00000000
   11 C                    6.0000    -0.53450789    -2.88212824     0.00000000
   12 C                    6.0000     0.53450789     2.88212824     0.00000000
   13 H                    1.0000    -1.60655769    -3.13289308     0.00000000
   14 H                    1.0000     1.60655769     3.13289308     0.00000000
   15 C                    6.0000     0.36419263    -3.88177971     0.00000000
   16 C                    6.0000    -0.36419263     3.88177971     0.00000000
   17 H                    1.0000     1.44522900    -3.70144241     0.00000000
   18 H                    1.0000    -1.44522900     3.70144241     0.00000000
   19 H                    1.0000     0.04815351    -4.93192286     0.00000000
   20 H                    1.0000    -0.04815351     4.93192286     0.00000000

         Total DFT energy =     -382.081439085639

                    DFT Final Alpha Molecular Orbital Analysis
                    ------------------------------------------

 Vector    1  Occ=1.000000D+00  E=-1.025361D+01  Symmetry=bu

 Vector   41  Occ=0.000000D+00  E= 1.397083D-01  Symmetry=ag

 Vector   42  Occ=0.000000D+00  E= 1.490003D-01  Symmetry=bu

 Vector   43  Occ=0.000000D+00  E= 1.792466D-01  Symmetry=bu

 Vector   44  Occ=0.000000D+00  E= 1.964587D-01  Symmetry=ag

 Vector   45  Occ=0.000000D+00  E= 2.146793D-01  Symmetry=ag

 Vector   46  Occ=0.000000D+00  E= 2.203576D-01  Symmetry=bu

 Vector   47  Occ=0.000000D+00  E= 2.396756D-01  Symmetry=ag

 Vector   48  Occ=0.000000D+00  E= 2.405820D-01  Symmetry=bu

 Vector   49  Occ=0.000000D+00  E= 2.630187D-01  Symmetry=bu

 Vector   50  Occ=0.000000D+00  E= 2.853155D-01  Symmetry=ag

 Vector   51  Occ=0.000000D+00  E= 3.197839D-01  Symmetry=ag

 Vector   52  Occ=0.000000D+00  E= 3.442773D-01  Symmetry=bu

 Vector   53  Occ=0.000000D+00  E= 3.799999D-01  Symmetry=ag

 Vector   54  Occ=0.000000D+00  E= 3.978255D-01  Symmetry=bu

 Vector   55  Occ=0.000000D+00  E= 4.254715D-01  Symmetry=bu

 Vector   56  Occ=0.000000D+00  E= 4.381710D-01  Symmetry=ag

 Vector   57  Occ=0.000000D+00  E= 4.777506D-01  Symmetry=ag

 Vector   58  Occ=0.000000D+00  E= 5.060414D-01  Symmetry=bu

 Vector   59  Occ=0.000000D+00  E= 5.676000D-01  Symmetry=ag

 Vector   60  Occ=0.000000D+00  E= 5.817448D-01  Symmetry=bu

 Vector    1  Occ=1.000000D+00  E=-1.025063D+01  Symmetry=bu

 Vector    2  Occ=1.000000D+00  E=-1.025058D+01  Symmetry=ag

 Vector    3  Occ=1.000000D+00  E=-1.021921D+01  Symmetry=bu

 Vector    4  Occ=1.000000D+00  E=-1.021917D+01  Symmetry=ag

 Vector    5  Occ=1.000000D+00  E=-1.021844D+01  Symmetry=ag

 Vector    6  Occ=1.000000D+00  E=-1.021844D+01  Symmetry=bu

 Vector    7  Occ=1.000000D+00  E=-1.021786D+01  Symmetry=bu

 Vector    8  Occ=1.000000D+00  E=-1.021776D+01  Symmetry=ag

 Vector    9  Occ=1.000000D+00  E=-1.021079D+01  Symmetry=ag

 Vector   10  Occ=1.000000D+00  E=-1.021079D+01  Symmetry=bu

 Vector   11  Occ=1.000000D+00  E=-1.014702D+00  Symmetry=ag

 Vector   12  Occ=1.000000D+00  E=-9.544807D-01  Symmetry=bu

 Vector   13  Occ=1.000000D+00  E=-9.137413D-01  Symmetry=ag

 Vector   14  Occ=1.000000D+00  E=-8.975952D-01  Symmetry=bu

 Vector   15  Occ=1.000000D+00  E=-8.645220D-01  Symmetry=bu

 Vector   16  Occ=1.000000D+00  E=-7.818207D-01  Symmetry=ag

 Vector   17  Occ=1.000000D+00  E=-7.558002D-01  Symmetry=ag

 Vector   18  Occ=1.000000D+00  E=-7.185973D-01  Symmetry=bu

 Vector   19  Occ=1.000000D+00  E=-7.004621D-01  Symmetry=ag

 Vector   20  Occ=1.000000D+00  E=-6.482774D-01  Symmetry=ag

 Vector   21  Occ=1.000000D+00  E=-6.329042D-01  Symmetry=bu

 Vector   22  Occ=1.000000D+00  E=-6.012788D-01  Symmetry=bu

 Vector   23  Occ=1.000000D+00  E=-5.932512D-01  Symmetry=bu

 Vector   24  Occ=1.000000D+00  E=-5.849175D-01  Symmetry=ag

 Vector   25  Occ=1.000000D+00  E=-5.681424D-01  Symmetry=bu

 Vector   26  Occ=1.000000D+00  E=-5.492919D-01  Symmetry=bu

 Vector   27  Occ=1.000000D+00  E=-5.351484D-01  Symmetry=ag

 Vector   28  Occ=1.000000D+00  E=-5.173619D-01  Symmetry=au

 Vector   29  Occ=1.000000D+00  E=-4.994339D-01  Symmetry=bu

 Vector   30  Occ=1.000000D+00  E=-4.917913D-01  Symmetry=ag

 Vector   31  Occ=1.000000D+00  E=-4.811398D-01  Symmetry=ag

 Vector   32  Occ=1.000000D+00  E=-4.507965D-01  Symmetry=bg

 Vector   33  Occ=1.000000D+00  E=-3.911602D-01  Symmetry=bg

 Vector   34  Occ=1.000000D+00  E=-3.887383D-01  Symmetry=au

 Vector   35  Occ=0.000000D+00  E=-3.004760D-01  Symmetry=bg

 Vector   36  Occ=0.000000D+00  E=-1.470203D-01  Symmetry=au

 Vector   37  Occ=0.000000D+00  E=-1.034293D-01  Symmetry=au

 Vector   38  Occ=0.000000D+00  E=-7.365342D-02  Symmetry=bg

 Vector   39  Occ=0.000000D+00  E=-8.263563D-03  Symmetry=au

 Vector   40  Occ=0.000000D+00  E= 7.613877D-02  Symmetry=bg

 Vector   41  Occ=0.000000D+00  E= 1.421613D-01  Symmetry=ag

 Vector   42  Occ=0.000000D+00  E= 1.508757D-01  Symmetry=bu

 Vector   43  Occ=0.000000D+00  E= 1.811463D-01  Symmetry=bu

 Vector   44  Occ=0.000000D+00  E= 1.979357D-01  Symmetry=ag

 Vector   45  Occ=0.000000D+00  E= 2.203487D-01  Symmetry=ag

 Vector   46  Occ=0.000000D+00  E= 2.257456D-01  Symmetry=bu

 Vector   47  Occ=0.000000D+00  E= 2.420308D-01  Symmetry=bu

 Vector   48  Occ=0.000000D+00  E= 2.463279D-01  Symmetry=ag

 Vector   49  Occ=0.000000D+00  E= 2.700333D-01  Symmetry=bu

 Vector   50  Occ=0.000000D+00  E= 2.904648D-01  Symmetry=ag

 Vector   51  Occ=0.000000D+00  E= 3.235116D-01  Symmetry=ag

 Vector   52  Occ=0.000000D+00  E= 3.477299D-01  Symmetry=bu

 Vector   53  Occ=0.000000D+00  E= 3.814970D-01  Symmetry=ag

 Vector   54  Occ=0.000000D+00  E= 4.000063D-01  Symmetry=bu

 Vector   55  Occ=0.000000D+00  E= 4.297925D-01  Symmetry=bu

 Vector   56  Occ=0.000000D+00  E= 4.407378D-01  Symmetry=ag

 Vector   57  Occ=0.000000D+00  E= 4.815299D-01  Symmetry=ag

 Vector   58  Occ=0.000000D+00  E= 5.114574D-01  Symmetry=bu

 Vector   59  Occ=0.000000D+00  E= 5.713391D-01  Symmetry=ag

 Vector   60  Occ=0.000000D+00  E= 5.848855D-01  Symmetry=bu

     Multipole analysis of the density
     ---------------------------------

     L   x y z        total         alpha         beta         nuclear
     -   - - -        -----         -----         ----         -------
     0   0 0 0      1.000000    -35.000000    -34.000000     70.000000

     1   1 0 0      0.000000     -0.000000      0.000000      0.000000
     1   0 1 0     -0.000000     -0.000000     -0.000000      0.000000
     1   0 0 1      0.000000      0.000000      0.000000      0.000000

     2   2 0 0    -32.088307   -138.903464   -137.980714    244.795872
     2   1 1 0     -0.672812      3.818258      1.139957     -5.631027
     2   1 0 1      0.000000      0.000000      0.000000      0.000000
     2   0 2 0     -6.463658   -767.762440   -735.664518   1496.963300
     2   0 1 1      0.000000      0.000000      0.000000      0.000000

 Total times  cpu:      102.6s     wall:      105.2s
