         Total DFT energy =     -382.308236372325
@ Step       Energy      Delta E   Gmax     Grms     Xrms     Xmax   Walltime
@ ---- ---------------- -------- -------- -------- -------- -------- --------
@    0    -382.30823637  0.0D+00  0.00075  0.00023  0.00000  0.00000     16.9
         Total DFT energy =     -382.308260233548
         Total DFT energy =     -382.308260637814
@    1    -382.30826064 -2.4D-05  0.00023  0.00007  0.00465  0.01494     33.9
         Total DFT energy =     -382.308261561555

 Vector   14  Occ=2.000000D+00  E=-6.997958D-01  Symmetry=bu

 Vector   15  Occ=2.000000D+00  E=-6.675124D-01  Symmetry=bu

 Vector   16  Occ=2.000000D+00  E=-5.887149D-01  Symmetry=ag

 Vector   17  Occ=2.000000D+00  E=-5.589267D-01  Symmetry=ag

 Vector   18  Occ=2.000000D+00  E=-5.316676D-01  Symmetry=bu

 Vector   19  Occ=2.000000D+00  E=-5.101867D-01  Symmetry=ag

 Vector   20  Occ=2.000000D+00  E=-4.574291D-01  Symmetry=ag

 Vector   21  Occ=2.000000D+00  E=-4.393488D-01  Symmetry=bu

 Vector   22  Occ=2.000000D+00  E=-4.106308D-01  Symmetry=bu

 Vector   23  Occ=2.000000D+00  E=-3.979485D-01  Symmetry=bu

 Vector   24  Occ=2.000000D+00  E=-3.960808D-01  Symmetry=ag

 Vector   25  Occ=2.000000D+00  E=-3.739841D-01  Symmetry=bu

 Vector   26  Occ=2.000000D+00  E=-3.511583D-01  Symmetry=bu

 Vector   27  Occ=2.000000D+00  E=-3.472814D-01  Symmetry=ag

 Vector   28  Occ=2.000000D+00  E=-3.245156D-01  Symmetry=au

 Vector   29  Occ=2.000000D+00  E=-3.112351D-01  Symmetry=bu

 Vector   30  Occ=2.000000D+00  E=-2.927966D-01  Symmetry=ag

 Vector   31  Occ=2.000000D+00  E=-2.874573D-01  Symmetry=ag

 Vector   32  Occ=2.000000D+00  E=-2.635547D-01  Symmetry=bg

 Vector   33  Occ=2.000000D+00  E=-2.124520D-01  Symmetry=au

 Vector   34  Occ=2.000000D+00  E=-1.950605D-01  Symmetry=bg

 Vector   35  Occ=2.000000D+00  E=-1.530836D-01  Symmetry=bg

 Vector   36  Occ=0.000000D+00  E= 3.741067D-02  Symmetry=au

 Vector   37  Occ=0.000000D+00  E= 9.037226D-02  Symmetry=au

 Vector   38  Occ=0.000000D+00  E= 1.106158D-01  Symmetry=bg

 Vector   39  Occ=0.000000D+00  E= 1.822159D-01  Symmetry=au

 Vector   40  Occ=0.000000D+00  E= 2.725378D-01  Symmetry=bg

 Vector   41  Occ=0.000000D+00  E= 3.322217D-01  Symmetry=ag

 Vector   42  Occ=0.000000D+00  E= 3.407201D-01  Symmetry=bu

 Vector   43  Occ=0.000000D+00  E= 3.794023D-01  Symmetry=bu

 Vector   44  Occ=0.000000D+00  E= 3.814646D-01  Symmetry=ag

 Vector   45  Occ=0.000000D+00  E= 4.110215D-01  Symmetry=ag

 Vector   46  Occ=0.000000D+00  E= 4.120118D-01  Symmetry=bu

 Vector   47  Occ=0.000000D+00  E= 4.267529D-01  Symmetry=bu

 Vector   48  Occ=0.000000D+00  E= 4.396376D-01  Symmetry=ag

 Vector   49  Occ=0.000000D+00  E= 4.527257D-01  Symmetry=bu

 Vector   50  Occ=0.000000D+00  E= 4.782775D-01  Symmetry=ag

 Vector   51  Occ=0.000000D+00  E= 5.262660D-01  Symmetry=ag

         Total DFT energy =   -382.308261561555
@    2    -382.30826156 -9.2D-07  0.00004  0.00001  0.00061  0.00215     45.3
         Total DFT energy =     -382.308261640529

                       DFT Final Molecular Orbital Analysis
                       ------------------------------------

 Vector   10  Occ=2.000000D+00  E=-9.992327D+00  Symmetry=ag

 Vector   11  Occ=2.000000D+00  E=-8.095106D-01  Symmetry=ag

 Vector   12  Occ=2.000000D+00  E=-7.539866D-01  Symmetry=bu

 Vector   13  Occ=2.000000D+00  E=-7.179660D-01  Symmetry=ag

 Vector   14  Occ=2.000000D+00  E=-6.997886D-01  Symmetry=bu

 Vector   15  Occ=2.000000D+00  E=-6.675116D-01  Symmetry=bu

 Vector   16  Occ=2.000000D+00  E=-5.887077D-01  Symmetry=ag

 Vector   17  Occ=2.000000D+00  E=-5.589269D-01  Symmetry=ag

 Vector   18  Occ=2.000000D+00  E=-5.316631D-01  Symmetry=bu

 Vector   19  Occ=2.000000D+00  E=-5.101787D-01  Symmetry=ag

 Vector   20  Occ=2.000000D+00  E=-4.574373D-01  Symmetry=ag

 Vector   21  Occ=2.000000D+00  E=-4.393594D-01  Symmetry=bu

 Vector   22  Occ=2.000000D+00  E=-4.106203D-01  Symmetry=bu

 Vector   23  Occ=2.000000D+00  E=-3.979534D-01  Symmetry=bu

 Vector   24  Occ=2.000000D+00  E=-3.960737D-01  Symmetry=ag

 Vector   25  Occ=2.000000D+00  E=-3.739779D-01  Symmetry=bu

 Vector   26  Occ=2.000000D+00  E=-3.511500D-01  Symmetry=bu

 Vector   27  Occ=2.000000D+00  E=-3.472862D-01  Symmetry=ag

 Vector   28  Occ=2.000000D+00  E=-3.245088D-01  Symmetry=au

 Vector   29  Occ=2.000000D+00  E=-3.112466D-01  Symmetry=bu

 Vector   30  Occ=2.000000D+00  E=-2.927991D-01  Symmetry=ag

 Vector   31  Occ=2.000000D+00  E=-2.874575D-01  Symmetry=ag

 Vector   32  Occ=2.000000D+00  E=-2.635512D-01  Symmetry=bg

 Vector   33  Occ=2.000000D+00  E=-2.124471D-01  Symmetry=au

 Vector   34  Occ=2.000000D+00  E=-1.950566D-01  Symmetry=bg

 Vector   35  Occ=2.000000D+00  E=-1.530803D-01  Symmetry=bg

 Vector   36  Occ=0.000000D+00  E= 3.740717D-02  Symmetry=au

 Vector   37  Occ=0.000000D+00  E= 9.036486D-02  Symmetry=au

 Vector   38  Occ=0.000000D+00  E= 1.106123D-01  Symmetry=bg

 Vector   39  Occ=0.000000D+00  E= 1.822119D-01  Symmetry=au

 Vector   40  Occ=0.000000D+00  E= 2.725252D-01  Symmetry=bg

 Vector   41  Occ=0.000000D+00  E= 3.322354D-01  Symmetry=ag

 Vector   42  Occ=0.000000D+00  E= 3.407361D-01  Symmetry=bu

 Vector   43  Occ=0.000000D+00  E= 3.793988D-01  Symmetry=bu

 Vector   44  Occ=0.000000D+00  E= 3.814761D-01  Symmetry=ag

 Vector   45  Occ=0.000000D+00  E= 4.110019D-01  Symmetry=ag

 Vector   46  Occ=0.000000D+00  E= 4.119879D-01  Symmetry=bu

 Vector   47  Occ=0.000000D+00  E= 4.267671D-01  Symmetry=bu

 Vector   48  Occ=0.000000D+00  E= 4.396342D-01  Symmetry=ag

 Vector   49  Occ=0.000000D+00  E= 4.527325D-01  Symmetry=bu

 Vector   50  Occ=0.000000D+00  E= 4.782522D-01  Symmetry=ag

 Vector   51  Occ=0.000000D+00  E= 5.262553D-01  Symmetry=ag

     Multipole analysis of the density
     ---------------------------------

     L   x y z        total         alpha         beta         nuclear
     -   - - -        -----         -----         ----         -------
     0   0 0 0     -0.000000    -35.000000    -35.000000     70.000000

     1   1 0 0      0.000000      0.000000      0.000000      0.000000
     1   0 1 0     -0.000000     -0.000000     -0.000000      0.000000
     1   0 0 1      0.000000      0.000000      0.000000      0.000000

     2   2 0 0    -37.340646   -140.891384   -140.891384    244.442121
     2   1 1 0      0.052347      2.886738      2.886738     -5.721128
     2   1 0 1      0.000000      0.000000      0.000000      0.000000
     2   0 2 0    -37.704664   -768.216034   -768.216034   1498.727404
     2   0 1 1     -0.000000     -0.000000     -0.000000      0.000000

         Total DFT energy =   -382.308261640529
@    3    -382.30826164 -7.9D-08  0.00001  0.00000  0.00011  0.00039     55.7
@    3    -382.30826164 -7.9D-08  0.00001  0.00000  0.00011  0.00039     55.7

 Output coordinates in angstroms (scale by  1.889725989 to convert to a.u.)

  No.       Tag          Charge          X              Y              Z
 ---- ---------------- ---------- -------------- -------------- --------------
    1 C                    6.0000     0.23508647     1.41621544     0.00000000
    2 C                    6.0000    -0.23508647    -1.41621544     0.00000000
    3 C                    6.0000     1.31390635     0.48912330     0.00000000
    4 C                    6.0000    -1.31390635    -0.48912330     0.00000000
    5 C                    6.0000     1.08689379    -0.89453821     0.00000000
    6 C                    6.0000    -1.08689379     0.89453821     0.00000000
    7 H                    1.0000     2.34429319     0.87032423     0.00000000
    8 H                    1.0000    -2.34429319    -0.87032423     0.00000000
    9 H                    1.0000     1.94343860    -1.58086371     0.00000000
   10 H                    1.0000    -1.94343860     1.58086371     0.00000000
   11 C                    6.0000    -0.53391326    -2.88364140     0.00000000
   12 C                    6.0000     0.53391326     2.88364140     0.00000000
   13 H                    1.0000    -1.60648263    -3.12964688     0.00000000
   14 H                    1.0000     1.60648263     3.12964688     0.00000000
   15 C                    6.0000     0.36351559    -3.88448664     0.00000000
   16 C                    6.0000    -0.36351559     3.88448664     0.00000000
   17 H                    1.0000     1.44532237    -3.70881063     0.00000000
   18 H                    1.0000    -1.44532237     3.70881063     0.00000000
   19 H                    1.0000     0.04490649    -4.93338582     0.00000000
   20 H                    1.0000    -0.04490649     4.93338582     0.00000000

 Total times  cpu:       52.8s     wall:       57.2s
