         Total SCF energy =   -379.768962491035
@ Step       Energy      Delta E   Gmax     Grms     Xrms     Xmax   Walltime
@ ---- ---------------- -------- -------- -------- -------- -------- --------
@    0    -379.76896249  0.0D+00  0.04567  0.01110  0.00000  0.00000      6.1
         Total SCF energy =   -379.776275319550
         Total SCF energy =   -379.777871719881
@    1    -379.77787172 -8.9D-03  0.00420  0.00083  0.04325  0.11704     13.4
         Total SCF energy =   -379.777938204874
         Total SCF energy =   -379.777946015853

 Vector   36  Occ=0.000000D+00  E= 2.066170D-01  Symmetry=au

 Vector   37  Occ=0.000000D+00  E= 2.733630D-01  Symmetry=au

 Vector   38  Occ=0.000000D+00  E= 3.183163D-01  Symmetry=bg

 Vector   39  Occ=0.000000D+00  E= 4.059818D-01  Symmetry=au

 Vector   40  Occ=0.000000D+00  E= 5.376631D-01  Symmetry=bg

 Vector   41  Occ=0.000000D+00  E= 5.688910D-01  Symmetry=ag

 Vector   42  Occ=0.000000D+00  E= 5.832026D-01  Symmetry=bu

 Vector   43  Occ=0.000000D+00  E= 6.326170D-01  Symmetry=bu

 Vector   44  Occ=0.000000D+00  E= 6.355275D-01  Symmetry=ag

 Vector   45  Occ=0.000000D+00  E= 6.822890D-01  Symmetry=ag

@    2    -379.77794602 -7.4D-05  0.00118  0.00023  0.00440  0.01818     20.7
         Total SCF energy =   -379.777955012633

 Vector   11  Occ=2.000000D+00  E=-1.106654D+00  Symmetry=ag

 Vector   12  Occ=2.000000D+00  E=-1.031718D+00  Symmetry=bu

 Vector   13  Occ=2.000000D+00  E=-9.884358D-01  Symmetry=ag

 Vector   14  Occ=2.000000D+00  E=-9.609325D-01  Symmetry=bu

 Vector   15  Occ=2.000000D+00  E=-9.226869D-01  Symmetry=bu

 Vector   16  Occ=2.000000D+00  E=-8.064084D-01  Symmetry=ag

 Vector   17  Occ=2.000000D+00  E=-7.712747D-01  Symmetry=ag

 Vector   18  Occ=2.000000D+00  E=-7.329502D-01  Symmetry=bu

 Vector   19  Occ=2.000000D+00  E=-7.072298D-01  Symmetry=ag

 Vector   20  Occ=2.000000D+00  E=-6.391285D-01  Symmetry=ag

 Vector   21  Occ=2.000000D+00  E=-6.150846D-01  Symmetry=bu

 Vector   22  Occ=2.000000D+00  E=-5.776231D-01  Symmetry=bu

 Vector   23  Occ=2.000000D+00  E=-5.638139D-01  Symmetry=bu

 Vector   24  Occ=2.000000D+00  E=-5.628773D-01  Symmetry=ag

 Vector   25  Occ=2.000000D+00  E=-5.325179D-01  Symmetry=bu

 Vector   26  Occ=2.000000D+00  E=-5.074061D-01  Symmetry=bu

 Vector   27  Occ=2.000000D+00  E=-4.981034D-01  Symmetry=ag

 Vector   28  Occ=2.000000D+00  E=-4.772651D-01  Symmetry=au

 Vector   29  Occ=2.000000D+00  E=-4.486298D-01  Symmetry=bu

 Vector   30  Occ=2.000000D+00  E=-4.259545D-01  Symmetry=ag

 Vector   31  Occ=2.000000D+00  E=-4.181829D-01  Symmetry=ag

 Vector   32  Occ=2.000000D+00  E=-3.868371D-01  Symmetry=bg

 Vector   33  Occ=2.000000D+00  E=-3.269036D-01  Symmetry=au

 Vector   34  Occ=2.000000D+00  E=-2.855845D-01  Symmetry=bg

 Vector   35  Occ=2.000000D+00  E=-2.332358D-01  Symmetry=bg

 Vector   36  Occ=0.000000D+00  E= 2.069561D-01  Symmetry=au

 Vector   37  Occ=0.000000D+00  E= 2.731505D-01  Symmetry=au

 Vector   38  Occ=0.000000D+00  E= 3.186101D-01  Symmetry=bg

 Vector   39  Occ=0.000000D+00  E= 4.060614D-01  Symmetry=au

 Vector   40  Occ=0.000000D+00  E= 5.374970D-01  Symmetry=bg

 Vector   41  Occ=0.000000D+00  E= 5.684402D-01  Symmetry=ag

 Vector   42  Occ=0.000000D+00  E= 5.827521D-01  Symmetry=bu

 Vector   43  Occ=0.000000D+00  E= 6.323190D-01  Symmetry=bu

 Vector   44  Occ=0.000000D+00  E= 6.348876D-01  Symmetry=ag

 Vector   45  Occ=0.000000D+00  E= 6.824439D-01  Symmetry=ag

         Total SCF energy =   -379.777955012633
@    3    -379.77795501 -9.0D-06  0.00004  0.00002  0.00110  0.00242     26.1
         Total SCF energy =   -379.777955110167

 Vector   11  Occ=2.000000D+00  E=-1.106644D+00  Symmetry=ag

 Vector   12  Occ=2.000000D+00  E=-1.031709D+00  Symmetry=bu

 Vector   13  Occ=2.000000D+00  E=-9.884409D-01  Symmetry=ag

 Vector   14  Occ=2.000000D+00  E=-9.609290D-01  Symmetry=bu

 Vector   15  Occ=2.000000D+00  E=-9.226844D-01  Symmetry=bu

 Vector   16  Occ=2.000000D+00  E=-8.064080D-01  Symmetry=ag

 Vector   17  Occ=2.000000D+00  E=-7.712472D-01  Symmetry=ag

 Vector   18  Occ=2.000000D+00  E=-7.329704D-01  Symmetry=bu

 Vector   19  Occ=2.000000D+00  E=-7.072447D-01  Symmetry=ag

 Vector   20  Occ=2.000000D+00  E=-6.391354D-01  Symmetry=ag

 Vector   21  Occ=2.000000D+00  E=-6.150835D-01  Symmetry=bu

 Vector   22  Occ=2.000000D+00  E=-5.776098D-01  Symmetry=bu

 Vector   23  Occ=2.000000D+00  E=-5.638130D-01  Symmetry=bu

 Vector   24  Occ=2.000000D+00  E=-5.628886D-01  Symmetry=ag

 Vector   25  Occ=2.000000D+00  E=-5.324986D-01  Symmetry=bu

 Vector   26  Occ=2.000000D+00  E=-5.074034D-01  Symmetry=bu

 Vector   27  Occ=2.000000D+00  E=-4.981101D-01  Symmetry=ag

 Vector   28  Occ=2.000000D+00  E=-4.772560D-01  Symmetry=au

 Vector   29  Occ=2.000000D+00  E=-4.486543D-01  Symmetry=bu

 Vector   30  Occ=2.000000D+00  E=-4.259206D-01  Symmetry=ag

 Vector   31  Occ=2.000000D+00  E=-4.182029D-01  Symmetry=ag

 Vector   32  Occ=2.000000D+00  E=-3.868289D-01  Symmetry=bg

 Vector   33  Occ=2.000000D+00  E=-3.269088D-01  Symmetry=au

 Vector   34  Occ=2.000000D+00  E=-2.855873D-01  Symmetry=bg

 Vector   35  Occ=2.000000D+00  E=-2.332302D-01  Symmetry=bg

 Vector   36  Occ=0.000000D+00  E= 2.069474D-01  Symmetry=au

 Vector   37  Occ=0.000000D+00  E= 2.731783D-01  Symmetry=au

 Vector   38  Occ=0.000000D+00  E= 3.186016D-01  Symmetry=bg

 Vector   39  Occ=0.000000D+00  E= 4.060358D-01  Symmetry=au

 Vector   40  Occ=0.000000D+00  E= 5.374914D-01  Symmetry=bg

 Vector   41  Occ=0.000000D+00  E= 5.684326D-01  Symmetry=ag

 Vector   42  Occ=0.000000D+00  E= 5.827712D-01  Symmetry=bu

 Vector   43  Occ=0.000000D+00  E= 6.322689D-01  Symmetry=bu

 Vector   44  Occ=0.000000D+00  E= 6.348990D-01  Symmetry=ag

 Vector   45  Occ=0.000000D+00  E= 6.824552D-01  Symmetry=ag

       Multipole analysis of the density wrt the origin
       ------------------------------------------------

     L   x y z        total         open         nuclear
     -   - - -        -----         ----         -------
     0   0 0 0     -0.000000      0.000000     70.000000

     1   1 0 0     -0.000000      0.000000      0.000000
     1   0 1 0     -0.000000      0.000000      0.000000
     1   0 0 1      0.000000      0.000000      0.000000

     2   2 0 0    -38.489222      0.000000    235.913078
     2   1 1 0      0.092965      0.000000     -4.471957
     2   1 0 1      0.000000      0.000000      0.000000
     2   0 2 0    -39.167740      0.000000   1465.729381
     2   0 1 1      0.000000      0.000000      0.000000

         Total SCF energy =   -379.777955110167
@    4    -379.77795511 -9.8D-08  0.00002  0.00001  0.00020  0.00046     31.3
@    4    -379.77795511 -9.8D-08  0.00002  0.00001  0.00020  0.00046     31.3

 Output coordinates in angstroms (scale by  1.889725989 to convert to a.u.)

  No.       Tag          Charge          X              Y              Z
 ---- ---------------- ---------- -------------- -------------- --------------
    1 C                    6.0000     0.22791249     1.39288748     0.00000000
    2 C                    6.0000    -0.22791249    -1.39288748     0.00000000
    3 C                    6.0000     1.28919537     0.48588632     0.00000000
    4 C                    6.0000    -1.28919537    -0.48588632     0.00000000
    5 C                    6.0000     1.06903481    -0.87838865     0.00000000
    6 C                    6.0000    -1.06903481     0.87838865     0.00000000
    7 H                    1.0000     2.30488244     0.86057095     0.00000000
    8 H                    1.0000    -2.30488244    -0.86057095     0.00000000
    9 H                    1.0000     1.91772166    -1.54845654     0.00000000
   10 H                    1.0000    -1.91772166     1.54845654     0.00000000
   11 C                    6.0000    -0.52245959    -2.85975846     0.00000000
   12 C                    6.0000     0.52245959     2.85975846     0.00000000
   13 H                    1.0000    -1.57985284    -3.10026315     0.00000000
   14 H                    1.0000     1.57985284     3.10026315     0.00000000
   15 C                    6.0000     0.35270448    -3.83939603     0.00000000
   16 C                    6.0000    -0.35270448     3.83939603     0.00000000
   17 H                    1.0000     1.42081357    -3.67692253     0.00000000
   18 H                    1.0000    -1.42081357     3.67692253     0.00000000
   19 H                    1.0000     0.03744355    -4.87355574     0.00000000
   20 H                    1.0000    -0.03744355     4.87355574     0.00000000

 Total times  cpu:       28.4s     wall:       32.3s
