============================== echo of input deck ==============================
echo

geometry units angstrom noautoz nocenter
symmetry c1
N     -0.0699826875    0.3321987191    0.2821283177
C      1.3728035449    0.0970713322   -0.0129587739
C      2.0969275417   -0.0523593054    1.3682652221
O      3.1382490088   -0.6563684788    1.5380162924
C      1.9529664597    1.3136139853   -0.7956021969
H      1.8442727348    2.2050605044   -0.1801631789
H      1.3455899915    1.4594935008   -1.6885689523
C      3.4053646872    1.1270611844   -1.1918075237
C      4.4845249667    1.6235038050   -0.5598918002
N      5.6509089647    1.2379326369   -1.2284610654
H      6.6009314349    1.4112351003   -0.9028629397
C      5.2921619642    0.4356274269   -2.3131617003
C      3.8942019475    0.3557998019   -2.3263315791
C      3.2659168792   -0.3832607567   -3.3431309548
H      2.1864306677   -0.4577058843   -3.3815918670
C      4.0381762333   -1.0087512639   -4.2870993776
H      3.5696890585   -1.5824763141   -5.0755609734
C      5.4445159165   -0.9194874753   -4.2519002882
H      6.0229926396   -1.4277973542   -5.0130007062
C      6.0869576238   -0.2024044961   -3.2767702726
H      7.1656650647   -0.1287762497   -3.2458650647
H      4.5457621618    2.2425310766    0.3253979653
H     -0.5159777859    0.7478905868   -0.5487661007
H      1.5420526570   -0.8143939718   -0.5935463196
H     -0.5302278747   -0.5823989653    0.4084507634
O      1.4575846656    0.5996887308    2.4093500287
H      0.5990015339    0.8842421241    2.0047830456
end

basis
* library sto-3g
end

scf
  thresh 1.0e-9
end

property
  response 1 0.0
  convergence 1e-8
end

task scf property

================================================================================

 Output coordinates in angstroms (scale by  1.889725989 to convert to a.u.)

  No.       Tag          Charge          X              Y              Z
 ---- ---------------- ---------- -------------- -------------- --------------
    1 N                    7.0000    -0.06998269     0.33219872     0.28212832
    2 C                    6.0000     1.37280354     0.09707133    -0.01295877
    3 C                    6.0000     2.09692754    -0.05235931     1.36826522
    4 O                    8.0000     3.13824901    -0.65636848     1.53801629
    5 C                    6.0000     1.95296646     1.31361399    -0.79560220
    6 H                    1.0000     1.84427273     2.20506050    -0.18016318
    7 H                    1.0000     1.34558999     1.45949350    -1.68856895
    8 C                    6.0000     3.40536469     1.12706118    -1.19180752
    9 C                    6.0000     4.48452497     1.62350381    -0.55989180
   10 N                    7.0000     5.65090896     1.23793264    -1.22846107
   11 H                    1.0000     6.60093143     1.41123510    -0.90286294
   12 C                    6.0000     5.29216196     0.43562743    -2.31316170
   13 C                    6.0000     3.89420195     0.35579980    -2.32633158
   14 C                    6.0000     3.26591688    -0.38326076    -3.34313095
   15 H                    1.0000     2.18643067    -0.45770588    -3.38159187
   16 C                    6.0000     4.03817623    -1.00875126    -4.28709938
   17 H                    1.0000     3.56968906    -1.58247631    -5.07556097
   18 C                    6.0000     5.44451592    -0.91948748    -4.25190029
   19 H                    1.0000     6.02299264    -1.42779735    -5.01300071
   20 C                    6.0000     6.08695762    -0.20240450    -3.27677027
   21 H                    1.0000     7.16566506    -0.12877625    -3.24586506
   22 H                    1.0000     4.54576216     2.24253108     0.32539797
   23 H                    1.0000    -0.51597779     0.74789059    -0.54876610
   24 H                    1.0000     1.54205266    -0.81439397    -0.59354632
   25 H                    1.0000    -0.53022787    -0.58239897     0.40845076
   26 O                    8.0000     1.45758467     0.59968873     2.40935003
   27 H                    1.0000     0.59900153     0.88424212     2.00478305

         Total SCF energy =   -673.590571112627

 Vector   16  Occ=2.000000D+00  E=-1.347680D+00

 Vector   17  Occ=2.000000D+00  E=-1.257839D+00

 Vector   18  Occ=2.000000D+00  E=-1.219988D+00

 Vector   19  Occ=2.000000D+00  E=-1.153790D+00

 Vector   20  Occ=2.000000D+00  E=-1.074547D+00

 Vector   21  Occ=2.000000D+00  E=-1.025525D+00

 Vector   22  Occ=2.000000D+00  E=-9.592735D-01

 Vector   23  Occ=2.000000D+00  E=-9.367758D-01

 Vector   24  Occ=2.000000D+00  E=-9.133381D-01

 Vector   25  Occ=2.000000D+00  E=-8.376413D-01

 Vector   26  Occ=2.000000D+00  E=-7.830515D-01

 Vector   27  Occ=2.000000D+00  E=-7.493745D-01

 Vector   28  Occ=2.000000D+00  E=-7.105980D-01

 Vector   29  Occ=2.000000D+00  E=-6.926341D-01

 Vector   30  Occ=2.000000D+00  E=-6.691635D-01

 Vector   31  Occ=2.000000D+00  E=-6.483890D-01

 Vector   32  Occ=2.000000D+00  E=-6.168923D-01

 Vector   33  Occ=2.000000D+00  E=-6.023242D-01

 Vector   34  Occ=2.000000D+00  E=-5.983567D-01

 Vector   35  Occ=2.000000D+00  E=-5.807631D-01

 Vector   36  Occ=2.000000D+00  E=-5.564603D-01

 Vector   37  Occ=2.000000D+00  E=-5.428143D-01

 Vector   38  Occ=2.000000D+00  E=-5.368602D-01

 Vector   39  Occ=2.000000D+00  E=-5.240885D-01

 Vector   40  Occ=2.000000D+00  E=-5.177421D-01

 Vector   41  Occ=2.000000D+00  E=-4.979350D-01

 Vector   42  Occ=2.000000D+00  E=-4.871602D-01

 Vector   43  Occ=2.000000D+00  E=-4.787739D-01

 Vector   44  Occ=2.000000D+00  E=-4.597271D-01

 Vector   45  Occ=2.000000D+00  E=-4.446253D-01

 Vector   46  Occ=2.000000D+00  E=-4.384767D-01

 Vector   47  Occ=2.000000D+00  E=-4.166885D-01

 Vector   48  Occ=2.000000D+00  E=-4.139122D-01

 Vector   49  Occ=2.000000D+00  E=-3.697146D-01

 Vector   50  Occ=2.000000D+00  E=-3.285250D-01

 Vector   51  Occ=2.000000D+00  E=-3.256203D-01

 Vector   52  Occ=2.000000D+00  E=-3.067447D-01

 Vector   53  Occ=2.000000D+00  E=-2.425861D-01

 Vector   54  Occ=2.000000D+00  E=-2.256687D-01

 Vector   55  Occ=0.000000D+00  E= 2.475766D-01

 Vector   56  Occ=0.000000D+00  E= 2.951862D-01

 Vector   57  Occ=0.000000D+00  E= 3.185100D-01

 Vector   58  Occ=0.000000D+00  E= 3.694396D-01

 Vector   59  Occ=0.000000D+00  E= 5.218495D-01

 Vector   60  Occ=0.000000D+00  E= 5.335973D-01

 Vector   61  Occ=0.000000D+00  E= 5.609849D-01

 Vector   62  Occ=0.000000D+00  E= 5.685727D-01

 Vector   63  Occ=0.000000D+00  E= 5.783672D-01

 Vector   64  Occ=0.000000D+00  E= 6.125769D-01

       Multipole analysis of the density wrt the origin
       ------------------------------------------------

     L   x y z        total         open         nuclear
     -   - - -        -----         ----         -------
     0   0 0 0     -0.000000      0.000000    108.000000

     1   1 0 0     -0.475078      0.000000    676.930920
     1   0 1 0      0.375625      0.000000     54.448431
     1   0 0 1     -0.877967      0.000000   -224.648790

     2   2 0 0    -52.883686      0.000000   5603.282547
     2   1 1 0      6.068975      0.000000    296.023896
     2   1 0 1     -3.010707      0.000000  -2339.437621
     2   0 2 0    -59.169874      0.000000    310.736590
     2   0 1 1      1.348243      0.000000    138.161061

 Total times  cpu:      104.2s     wall:      103.4s
