 Output coordinates in angstroms (scale by  1.889725989 to convert to a.u.)

  No.       Tag          Charge          X              Y              Z
 ---- ---------------- ---------- -------------- -------------- --------------
    1 O                    8.0000    -0.11915937     0.00000000     0.00000000
    2 H1                   1.0000     0.47663750    -0.79064915     0.00000000
    3 H2                   1.0000     0.47663750     0.79064915     0.00000000

         Total SCF energy =    -74.964328768146

 Vector    2  Occ=2.000000D+00  E=-1.250645D+00  Symmetry=a'

 Vector    3  Occ=2.000000D+00  E=-6.031664D-01  Symmetry=a'

 Vector    4  Occ=2.000000D+00  E=-4.454698D-01  Symmetry=a'

 Vector    5  Occ=2.000000D+00  E=-3.882145D-01  Symmetry=a"

 Vector    6  Occ=0.000000D+00  E= 5.707483D-01  Symmetry=a'

 Vector    7  Occ=0.000000D+00  E= 7.085917D-01  Symmetry=a'

       Multipole analysis of the density wrt the origin
       ------------------------------------------------

     L   x y z        total         open         nuclear
     -   - - -        -----         ----         -------
     0   0 0 0     -0.000000      0.000000     10.000000

     1   1 0 0      0.658406      0.000000      0.000000
     1   0 1 0     -0.000000      0.000000      0.000000
     1   0 0 1     -0.000000      0.000000      0.000000

     2   2 0 0     -4.027790      0.000000      2.028215
     2   1 1 0     -0.000000      0.000000      0.000000
     2   1 0 1     -0.000000      0.000000      0.000000
     2   0 2 0     -3.193229      0.000000      4.464731
     2   0 1 1     -0.000000      0.000000      0.000000

 CCSD total energy / hartree       =       -75.017758156149029
 CCSD(T) total energy / hartree       =       -75.017834858937803
 Total times  cpu:        0.3s     wall:        2.3s
