 Gaussian 16, Revision A.03,
 Gaussian 16:  ES64L-G16RevA.03 25-Dec-2016

 -----------------------------------------------------
 #p b3lyp/sto-3g guess=read freq=hpmodes geom=allcheck
 -----------------------------------------------------

 Structure from the checkpoint file:  "PhCCCC.chk"
 -------------------
 Title Card Required
 -------------------
 Charge =  0 Multiplicity = 1

                         Standard orientation:
 ---------------------------------------------------------------------
 Center     Atomic      Atomic             Coordinates (Angstroms)
 Number     Number       Type             X           Y           Z
 ---------------------------------------------------------------------
      1          6           0        0.269445    1.410118    0.000000
      2          6           0       -1.064785    0.920662   -0.000000
      3          6           0       -1.325389   -0.457058   -0.000000
      4          6           0       -0.269445   -1.410118    0.000000
      5          6           0        1.064785   -0.920662    0.000000
      6          1           0       -1.904470    1.627522   -0.000000
      7          1           0       -2.364759   -0.813041   -0.000000
      8          1           0        1.904470   -1.627522    0.000000
      9          6           0       -0.603688   -2.869960   -0.000000
     10          6           0        0.269445   -3.892070   -0.000000
     11          1           0        1.355175   -3.742314   -0.000000
     12          1           0       -1.681859   -3.090152   -0.000000
     13          1           0       -0.074247   -4.933029   -0.000000
     14          6           0        0.603688    2.869960   -0.000000
     15          1           0        1.681859    3.090152   -0.000000
     16          6           0       -0.269445    3.892070   -0.000000
     17          1           0       -1.355175    3.742314   -0.000000
     18          1           0        0.074247    4.933029   -0.000000
     19          6           0        1.325389    0.457058   -0.000000
     20          1           0        2.364759    0.813041   -0.000000
 ---------------------------------------------------------------------

 SCF Done:  E(RB3LYP) =  -382.308266602     A.U. after    1 cycles

 The electronic state is 1-AG.
 Alpha  occ. eigenvalues --  -10.02022 -10.02017 -10.00811 -10.00811 -10.00679
 Alpha  occ. eigenvalues --  -10.00678 -10.00605 -10.00591  -9.99233  -9.99233
 Alpha  occ. eigenvalues --   -0.80951  -0.75398  -0.71797  -0.69979  -0.66751
 Alpha  occ. eigenvalues --   -0.58869  -0.55892  -0.53166  -0.51018  -0.45745
 Alpha  occ. eigenvalues --   -0.43936  -0.41061  -0.39795  -0.39607  -0.37397
 Alpha  occ. eigenvalues --   -0.35115  -0.34729  -0.32451  -0.31125  -0.29279
 Alpha  occ. eigenvalues --   -0.28745  -0.26354  -0.21245  -0.19505  -0.15308
 Alpha virt. eigenvalues --    0.03742   0.09037   0.11061   0.18220   0.27253
 Alpha virt. eigenvalues --    0.33223   0.34074   0.37937   0.38145   0.41097
 Alpha virt. eigenvalues --    0.41196   0.42674   0.43962   0.45274   0.47826

 Mulliken charges:
               1
     1  C   -0.004504
     2  C   -0.077163
     3  C   -0.076614
     4  C   -0.004504
     5  C   -0.077163
     6  H    0.079223
     7  H    0.077694
     8  H    0.079223
     9  C   -0.076380
    10  C   -0.154812
    11  H    0.076327
    12  H    0.076884
    13  H    0.079344
    14  C   -0.076380
    15  H    0.076884
    16  C   -0.154812
    17  H    0.076327
    18  H    0.079344
    19  C   -0.076614
    20  H    0.077694
 Sum of Mulliken charges =  -0.00000

 Dipole moment (field-independent basis, Debye):
    X=              0.0000    Y=              0.0000    Z=             -0.0000  Tot=              0.0000
 Quadrupole moment (field-independent basis, Debye-Ang):
   XX=            -50.2214   YY=            -50.7163   ZZ=            -58.6254
   XY=              0.0592   XZ=             -0.0000   YZ=             -0.0000

  Exact polarizability:  68.238  -6.777 143.018   0.000   0.000  11.343
 Approx polarizability: 124.063 -22.163 223.862  -0.000   0.000  13.774

                      1                      2                      3
                     AU                     BG                     AU
 Frequencies --     53.1981                84.7415               149.4005
 Red. masses --      3.2266                 2.4837                 2.0822
 Frc consts  --      0.0054                 0.0105                 0.0274
 IR Inten    --      0.0342                 0.0000                 0.3727

                      4                      5                      6
                     BU                     AG                     BG
 Frequencies --    179.3403               263.3734               298.4125
 Red. masses --      3.3848                 3.2244                 2.3483
 Frc consts  --      0.0641                 0.1318                 0.1232
 IR Inten    --      0.2687                 0.0000                 0.0000

                      7                      8                      9
                     AG                     AU                     AU
 Frequencies --    407.5760               424.1455               467.7542
 Red. masses --      4.7968                 3.0368                 2.2518
 Frc consts  --      0.4695                 0.3219                 0.2903
 IR Inten    --      0.0000                 0.1000                 5.8039

                     10                     11                     12
                     BU                     AG                     BG
 Frequencies --    486.7028               578.5256               656.3315
 Red. masses --      3.2427                 2.8270                 2.0741
 Frc consts  --      0.4526                 0.5575                 0.5264
 IR Inten    --      1.8993                 0.0000                 0.0000

                     13                     14                     15
                     AG                     AU                     BU
 Frequencies --    673.6048               706.3769               735.1513
 Red. masses --      6.9110                 1.4889                 3.1842
 Frc consts  --      1.8476                 0.4377                 1.0139
 IR Inten    --      0.0000                 0.4352                 4.3442

                     16                     17                     18
                     BG                     AG                     BG
 Frequencies --    810.2004               862.7014               895.2722
 Red. masses --      3.3325                 4.4427                 1.2562
 Frc consts  --      1.2889                 1.9481                 0.5932
 IR Inten    --      0.0000                 0.0000                 0.0000

                     19                     20                     21
                     AU                     BG                     AU
 Frequencies --    897.2895               980.3970               980.5050
 Red. masses --      1.6957                 1.3643                 1.3669
 Frc consts  --      0.8044                 0.7726                 0.7743
 IR Inten    --     26.3680                 0.0000                36.2383

                     22                     23                     24
                     BG                     AU                     BU
 Frequencies --   1019.6139              1038.1332              1073.4696
 Red. masses --      1.2586                 1.3328                 2.9163
 Frc consts  --      0.7709                 0.8463                 1.9800
 IR Inten    --      0.0000                 0.0158                 0.5778

                     25                     26                     27
                     BU                     AU                     BG
 Frequencies --   1101.5128              1106.0043              1106.1583
 Red. masses --      1.4461                 1.0901                 1.0915
 Frc consts  --      1.0337                 0.7857                 0.7869
 IR Inten    --      8.9548                13.3059                 0.0000

                     28                     29                     30
                     AG                     BU                     AG
 Frequencies --   1109.9487              1204.9400              1262.9307
 Red. masses --      1.5056                 1.3530                 1.2423
 Frc consts  --      1.0928                 1.1574                 1.1674
 IR Inten    --      0.0000                 1.4942                 0.0000

                     31                     32                     33
                     BU                     AG                     BU
 Frequencies --   1284.8921              1296.1971              1351.4086
 Red. masses --      2.3326                 2.8288                 5.2228
 Frc consts  --      2.2689                 2.8002                 5.6199
 IR Inten    --      0.0824                 0.0000                 9.4700

                     34                     35                     36
                     AG                     BU                     AG
 Frequencies --   1398.7635              1420.6926              1426.7905
 Red. masses --      1.4216                 1.3384                 1.2532
 Frc consts  --      1.6388                 1.5916                 1.5031
 IR Inten    --      0.0000                 8.2400                 0.0000

                     37                     38                     39
                     BU                     AG                     BU
 Frequencies --   1515.0584              1565.6748              1575.3215
 Red. masses --      2.5521                 1.3010                 1.2967
 Frc consts  --      3.4515                 1.8790                 1.8960
 IR Inten    --     18.8008                 0.0000                 0.5560

                     40                     41                     42
                     BU                     AG                     AG
 Frequencies --   1641.3151              1691.3872              1740.0942
 Red. masses --      2.4971                 5.1086                 5.6180
 Frc consts  --      3.9634                 8.6108                10.0225
 IR Inten    --     15.0494                 0.0000                 0.0000

                     43                     44                     45
                     AG                     BU                     BU
 Frequencies --   1814.4584              1815.3382              3396.4292
 Red. masses --      3.9778                 3.9411                 1.0630
 Frc consts  --      7.7160                 7.6522                 7.2247
 IR Inten    --      0.0000                 1.4866                98.3271

                     46                     47                     48
                     AG                     BU                     AG
 Frequencies --   3397.1474              3437.7395              3437.7857
 Red. masses --      1.0629                 1.0978                 1.0978
 Frc consts  --      7.2274                 7.6439                 7.6443
 IR Inten    --      0.0000                 4.3943                 0.0000

                     49                     50                     51
                     BU                     AG                     BU
 Frequencies --   3447.2135              3450.7344              3467.0890
 Red. masses --      1.0917                 1.0916                 1.0986
 Frc consts  --      7.6433                 7.6581                 7.7807
 IR Inten    --      0.7808                 0.0000                 5.9042

                     52                     53                     54
                     AG                     BU                     AG
 Frequencies --   3470.0274              3548.3199              3548.3320
 Red. masses --      1.0995                 1.1182                 1.1182
 Frc consts  --      7.8004                 8.2953                 8.2953
 IR Inten    --      0.0000                 0.0040                 0.0000

 - Thermochemistry -
 -------------------
 Temperature   298.150 Kelvin.  Pressure   1.00000 Atm.
 Atom     1 has atomic number  6 and mass  12.00000

 Molecular mass:   130.07825 amu.
 Principal axes and moments of inertia in atomic units:
                           1         2         3
     Eigenvalues --   390.076312635.018523025.09483
           X            0.02413   0.99971   0.00000
           Y            0.99971  -0.02413   0.00000
           Z           -0.00000  -0.00000   1.00000
 This molecule is an asymmetric top.
 Rotational symmetry number  2.
 Rotational temperatures (Kelvin)      0.22204     0.03287     0.02863
 Rotational constants (GHZ):           4.62664     0.68491     0.59659
 Zero-point vibrational energy     465059.8 (Joules/Mol)
                                  111.15195 (Kcal/Mol)
 Warning -- explicit consideration of  11 degrees of freedom as
           vibrations may cause significant error
 Vibrational temperatures:     76.54   121.92   214.95   258.03   378.94
          (Kelvin)            429.35   586.41   610.25   672.99   700.26
                              832.37   944.31   969.17  1016.32  1057.72
                             1165.70  1241.23  1288.10  1291.00  1410.57
                             1410.73  1467.00  1493.64  1544.48  1584.83
                             1591.29  1591.52  1596.97  1733.64  1817.08
                             1848.67  1864.94  1944.38  2012.51  2044.06
                             2052.83  2179.83  2252.66  2266.54  2361.49
                             2433.53  2503.61  2610.60  2611.87  4886.70
                             4887.74  4946.14  4946.21  4959.77  4964.84
                             4988.37  4992.60  5105.24  5105.26

 Zero-point correction=                           0.177132 (Hartree/Particle)
 Thermal correction to Energy=                    0.186016
 Thermal correction to Enthalpy=                  0.186960
 Thermal correction to Gibbs Free Energy=         0.143352
 Sum of electronic and zero-point Energies=           -382.131135
 Sum of electronic and thermal Energies=              -382.122251
 Sum of electronic and thermal Enthalpies=            -382.121307
 Sum of electronic and thermal Free Energies=         -382.164915

                     E (Thermal)             CV                S
                      KCal/Mol        Cal/Mol-Kelvin    Cal/Mol-Kelvin
 Total                  116.727             33.556             91.781
 Electronic               0.000              0.000              0.000
 Translational            0.889              2.981             40.502
 Rotational               0.889              2.981             28.143
 Vibrational            114.949             27.594             23.136
 Vibration     1          0.596              1.976              4.695
 Vibration     2          0.601              1.960              3.778
 Vibration     3          0.618              1.903              2.680
 Vibration     4          0.629              1.868              2.335
 Vibration     5          0.670              1.740              1.639
 Vibration     6          0.691              1.677              1.426
 Vibration     7          0.772              1.454              0.935
 Vibration     8          0.786              1.418              0.878
 Vibration     9          0.825              1.322              0.744
 Vibration    10          0.843              1.280              0.692
 Vibration    11          0.935              1.078              0.488

 Optimization completed.
    -- Stationary point found.
 Normal termination of Gaussian 16 at Wed Apr  4 10:22:29 2018.
