 Gaussian 16, Revision A.03,
 Gaussian 16:  ES64L-G16RevA.03 25-Dec-2016

 -------------------
 #p b3lyp/sto-3g opt
 -------------------

 -------------------
 Title Card Required
 -------------------
 Symbolic Z-matrix:
 Charge =  0 Multiplicity = 1

 SCF Done:  E(RB3LYP) =  -382.294279146     A.U. after   12 cycles
 SCF Done:  E(RB3LYP) =  -382.307286501     A.U. after   12 cycles
 SCF Done:  E(RB3LYP) =  -382.308239279     A.U. after   10 cycles
 SCF Done:  E(RB3LYP) =  -382.308265702     A.U. after    8 cycles
 SCF Done:  E(RB3LYP) =  -382.308266602     A.U. after    7 cycles
 Optimization completed.
    -- Stationary point found.

                         Standard orientation:
 ---------------------------------------------------------------------
 Center     Atomic      Atomic             Coordinates (Angstroms)
 Number     Number       Type             X           Y           Z
 ---------------------------------------------------------------------
      1          6           0        0.269445    1.410118    0.000000
      2          6           0       -1.064785    0.920662    0.000000
      3          6           0       -1.325389   -0.457058   -0.000000
      4          6           0       -0.269445   -1.410118    0.000000
      5          6           0        1.064785   -0.920662    0.000000
      6          1           0       -1.904470    1.627522    0.000000
      7          1           0       -2.364759   -0.813041   -0.000000
      8          1           0        1.904470   -1.627522    0.000000
      9          6           0       -0.603688   -2.869960   -0.000000
     10          6           0        0.269445   -3.892070   -0.000000
     11          1           0        1.355175   -3.742314   -0.000000
     12          1           0       -1.681859   -3.090152   -0.000000
     13          1           0       -0.074247   -4.933029   -0.000000
     14          6           0        0.603688    2.869960   -0.000000
     15          1           0        1.681859    3.090152   -0.000000
     16          6           0       -0.269445    3.892070   -0.000000
     17          1           0       -1.355175    3.742314   -0.000000
     18          1           0        0.074247    4.933029   -0.000000
     19          6           0        1.325389    0.457058   -0.000000
     20          1           0        2.364759    0.813041   -0.000000
 ---------------------------------------------------------------------

 The electronic state is 1-AG.
 Alpha  occ. eigenvalues --  -10.02022 -10.02017 -10.00811 -10.00811 -10.00679
 Alpha  occ. eigenvalues --  -10.00678 -10.00605 -10.00591  -9.99233  -9.99233
 Alpha  occ. eigenvalues --   -0.80951  -0.75398  -0.71797  -0.69979  -0.66751
 Alpha  occ. eigenvalues --   -0.58869  -0.55892  -0.53166  -0.51018  -0.45745
 Alpha  occ. eigenvalues --   -0.43936  -0.41061  -0.39795  -0.39607  -0.37397
 Alpha  occ. eigenvalues --   -0.35115  -0.34729  -0.32451  -0.31125  -0.29279
 Alpha  occ. eigenvalues --   -0.28745  -0.26354  -0.21245  -0.19505  -0.15308
 Alpha virt. eigenvalues --    0.03742   0.09037   0.11061   0.18220   0.27253
 Alpha virt. eigenvalues --    0.33223   0.34074   0.37937   0.38145   0.41097
 Alpha virt. eigenvalues --    0.41196   0.42674   0.43962   0.45274   0.47826

 Mulliken charges:
               1
     1  C   -0.004504
     2  C   -0.077163
     3  C   -0.076614
     4  C   -0.004504
     5  C   -0.077163
     6  H    0.079223
     7  H    0.077694
     8  H    0.079223
     9  C   -0.076380
    10  C   -0.154812
    11  H    0.076327
    12  H    0.076884
    13  H    0.079344
    14  C   -0.076380
    15  H    0.076884
    16  C   -0.154812
    17  H    0.076327
    18  H    0.079344
    19  C   -0.076614
    20  H    0.077694
 Sum of Mulliken charges =   0.00000

 Dipole moment (field-independent basis, Debye):
    X=              0.0000    Y=              0.0000    Z=             -0.0000  Tot=              0.0000
 Quadrupole moment (field-independent basis, Debye-Ang):
   XX=            -50.2214   YY=            -50.7163   ZZ=            -58.6254
   XY=              0.0592   XZ=             -0.0000   YZ=              0.0000

 Normal termination of Gaussian 16 at Wed Apr  4 10:19:28 2018.
