 Gaussian 16, Revision A.03,
 Gaussian 16:  ES64L-G16RevA.03 25-Dec-2016

 --------------------------------
 #p b3lyp/sto-3g opt=modredundant
 --------------------------------

 -----------------
 DVB scan dihedral
 -----------------
 Symbolic Z-matrix:
 Charge =  0 Multiplicity = 1

 SCF Done:  E(RB3LYP) =  -382.308266559     A.U. after   12 cycles
 Optimization completed.
    -- Stationary point found.
 SCF Done:  E(RB3LYP) =  -382.304557345     A.U. after   14 cycles
 SCF Done:  E(RB3LYP) =  -382.306823025     A.U. after   11 cycles
 SCF Done:  E(RB3LYP) =  -382.306938227     A.U. after   11 cycles
 SCF Done:  E(RB3LYP) =  -382.306950008     A.U. after    9 cycles
 SCF Done:  E(RB3LYP) =  -382.306950767     A.U. after    8 cycles
 Optimization completed.
 SCF Done:  E(RB3LYP) =  -382.299855215     A.U. after   12 cycles
 SCF Done:  E(RB3LYP) =  -382.302403287     A.U. after   12 cycles
 SCF Done:  E(RB3LYP) =  -382.302645172     A.U. after   11 cycles
 SCF Done:  E(RB3LYP) =  -382.302649147     A.U. after    9 cycles
 SCF Done:  E(RB3LYP) =  -382.302649254     A.U. after    8 cycles
 SCF Done:  E(RB3LYP) =  -382.302649642     A.U. after    8 cycles
 SCF Done:  E(RB3LYP) =  -382.304037500     A.U. after   12 cycles
 SCF Done:  E(RB3LYP) =  -382.306863462     A.U. after   12 cycles
 SCF Done:  E(RB3LYP) =  -382.306949445     A.U. after   10 cycles
 SCF Done:  E(RB3LYP) =  -382.306950753     A.U. after    8 cycles
    -- Stationary point found.
 SCF Done:  E(RB3LYP) =  -382.305849699     A.U. after   12 cycles
 SCF Done:  E(RB3LYP) =  -382.308107482     A.U. after   12 cycles
 SCF Done:  E(RB3LYP) =  -382.308258557     A.U. after   11 cycles
 SCF Done:  E(RB3LYP) =  -382.308266289     A.U. after    9 cycles
 Optimization completed.
    -- Stationary point found.

                         Standard orientation:
 ---------------------------------------------------------------------
 Center     Atomic      Atomic             Coordinates (Angstroms)
 Number     Number       Type             X           Y           Z
 ---------------------------------------------------------------------
      1          6           0        1.415217    0.241722    0.000130
      2          6           0        0.899681   -1.082503    0.000191
      3          6           0       -0.482968   -1.315736    0.000030
      4          6           0       -1.415115   -0.241217   -0.000323
      5          6           0       -0.899406    1.083060    0.000088
      6          1           0        1.589949   -1.935927    0.000282
      7          1           0       -0.859359   -2.347834    0.000193
      8          1           0       -1.589638    1.936446    0.000055
      9          6           0       -2.881209   -0.547169    0.000102
     10          6           0       -3.886584    0.345216   -0.000147
     11          1           0       -3.716228    1.427871   -0.000702
     12          1           0       -3.122238   -1.620950    0.000834
     13          1           0       -4.933783    0.021261   -0.000097
     14          6           0        2.881269    0.546851    0.000073
     15          1           0        3.122787    1.620469    0.000704
     16          6           0        3.885996   -0.346237   -0.000337
     17          1           0        3.715137   -1.428858   -0.000832
     18          1           0        4.933459   -0.022903    0.000106
     19          6           0        0.483160    1.316344    0.000092
     20          1           0        0.859667    2.348434    0.000063
 ---------------------------------------------------------------------

 The electronic state is 1-A.
 Alpha  occ. eigenvalues --  -10.02023 -10.02018 -10.00811 -10.00811 -10.00680
 Alpha  occ. eigenvalues --  -10.00678 -10.00606 -10.00592  -9.99233  -9.99232
 Alpha  occ. eigenvalues --   -0.80952  -0.75398  -0.71797  -0.69979  -0.66753
 Alpha  occ. eigenvalues --   -0.58869  -0.55894  -0.53165  -0.51018  -0.45744
 Alpha  occ. eigenvalues --   -0.43936  -0.41062  -0.39796  -0.39607  -0.37397
 Alpha  occ. eigenvalues --   -0.35115  -0.34728  -0.32452  -0.31125  -0.29280
 Alpha  occ. eigenvalues --   -0.28745  -0.26355  -0.21245  -0.19506  -0.15309
 Alpha virt. eigenvalues --    0.03741   0.09036   0.11061   0.18221   0.27253
 Alpha virt. eigenvalues --    0.33223   0.34074   0.37937   0.38146   0.41100
 Alpha virt. eigenvalues --    0.41199   0.42677   0.43964   0.45270   0.47822

 Mulliken charges:
               1
     1  C   -0.004506
     2  C   -0.077161
     3  C   -0.076600
     4  C   -0.004505
     5  C   -0.077178
     6  H    0.079232
     7  H    0.077689
     8  H    0.079237
     9  C   -0.076354
    10  C   -0.154848
    11  H    0.076328
    12  H    0.076864
    13  H    0.079359
    14  C   -0.076381
    15  H    0.076874
    16  C   -0.154808
    17  H    0.076323
    18  H    0.079340
    19  C   -0.076608
    20  H    0.077703
 Sum of Mulliken charges =  -0.00000

 Dipole moment (field-independent basis, Debye):
    X=              0.0002    Y=             -0.0003    Z=              0.0003  Tot=              0.0005
 Quadrupole moment (field-independent basis, Debye-Ang):
   XX=            -50.7139   YY=            -50.2247   ZZ=            -58.6253
   XY=              0.0689   XZ=              0.0010   YZ=             -0.0005

 Normal termination of Gaussian 16 at Wed Apr  4 10:40:13 2018.
