 Gaussian 16, Revision A.03,
 Gaussian 16:  ES64L-G16RevA.03 25-Dec-2016

 ---------------------------
 #p rb3lyp/sto-3g freq=raman
 ---------------------------

 -------
 Notitle
 -------
 Symbolic Z-matrix:
 Charge =  0 Multiplicity = 1

                         Standard orientation:
 ---------------------------------------------------------------------
 Center     Atomic      Atomic             Coordinates (Angstroms)
 Number     Number       Type             X           Y           Z
 ---------------------------------------------------------------------
      1          6           0        0.269481   -1.410087    0.000000
      2          6           0       -1.064752   -0.920700    0.000000
      3          6           0       -1.325434    0.457029   -0.000000
      4          6           0       -0.269481    1.410087    0.000000
      5          6           0        1.064752    0.920700    0.000000
      6          1           0       -1.904434   -1.627596    0.000000
      7          1           0       -2.364772    0.813167   -0.000000
      8          1           0        1.904434    1.627596    0.000000
      9          6           0       -0.603732    2.869917   -0.000000
     10          6           0        0.269481    3.891952   -0.000000
     11          1           0        1.355166    3.742014   -0.000000
     12          1           0       -1.681904    3.090005   -0.000000
     13          1           0       -0.074029    4.932969   -0.000000
     14          6           0        0.603732   -2.869917   -0.000000
     15          1           0        1.681904   -3.090005   -0.000000
     16          6           0       -0.269481   -3.891952   -0.000000
     17          1           0       -1.355166   -3.742014   -0.000000
     18          1           0        0.074029   -4.932969   -0.000000
     19          6           0        1.325434   -0.457029    0.000000
     20          1           0        2.364772   -0.813167    0.000000
 ---------------------------------------------------------------------

 SCF Done:  E(RB3LYP) =  -382.308266561     A.U. after   12 cycles

 The electronic state is 1-AG.
 Alpha  occ. eigenvalues --  -10.02021 -10.02016 -10.00811 -10.00811 -10.00679
 Alpha  occ. eigenvalues --  -10.00678 -10.00605 -10.00591  -9.99233  -9.99233
 Alpha  occ. eigenvalues --   -0.80951  -0.75398  -0.71797  -0.69978  -0.66751
 Alpha  occ. eigenvalues --   -0.58869  -0.55892  -0.53167  -0.51017  -0.45745
 Alpha  occ. eigenvalues --   -0.43936  -0.41060  -0.39796  -0.39607  -0.37396
 Alpha  occ. eigenvalues --   -0.35115  -0.34729  -0.32451  -0.31125  -0.29278
 Alpha  occ. eigenvalues --   -0.28746  -0.26355  -0.21245  -0.19505  -0.15308
 Alpha virt. eigenvalues --    0.03742   0.09036   0.11061   0.18220   0.27253
 Alpha virt. eigenvalues --    0.33223   0.34073   0.37936   0.38145   0.41097
 Alpha virt. eigenvalues --    0.41195   0.42676   0.43964   0.45276   0.47826

 Mulliken charges:
               1
     1  C   -0.004506
     2  C   -0.077162
     3  C   -0.076608
     4  C   -0.004506
     5  C   -0.077162
     6  H    0.079219
     7  H    0.077691
     8  H    0.079219
     9  C   -0.076381
    10  C   -0.154817
    11  H    0.076331
    12  H    0.076887
    13  H    0.079346
    14  C   -0.076381
    15  H    0.076887
    16  C   -0.154817
    17  H    0.076331
    18  H    0.079346
    19  C   -0.076608
    20  H    0.077691
 Sum of Mulliken charges =  -0.00000

 Dipole moment (field-independent basis, Debye):
    X=             -0.0000    Y=              0.0000    Z=             -0.0000  Tot=              0.0000
 Quadrupole moment (field-independent basis, Debye-Ang):
   XX=            -50.2216   YY=            -50.7167   ZZ=            -58.6254
   XY=             -0.0592   XZ=              0.0000   YZ=             -0.0000

  Exact polarizability:  68.238   6.778 143.010  -0.000  -0.000  11.343
 Approx polarizability: 124.068  22.164 223.848   0.000  -0.000  13.774

                      1                      2                      3
                     AU                     BG                     AU
 Frequencies --     53.1117                84.6059               149.2231
 Red. masses --      3.2240                 2.4826                 2.0825
 Frc consts  --      0.0054                 0.0105                 0.0273
 IR Inten    --      0.0340                 0.0000                 0.3732
 Raman Activ --      0.0000                 2.6793                 0.0000

                      4                      5                      6
                     BU                     AG                     BG
 Frequencies --    179.3521               263.4307               298.3454
 Red. masses --      3.3848                 3.2243                 2.3487
 Frc consts  --      0.0641                 0.1318                 0.1232
 IR Inten    --      0.2686                 0.0000                 0.0000
 Raman Activ --      0.0000                 7.6213                 1.8622

                      7                      8                      9
                     AG                     AU                     AU
 Frequencies --    407.5994               424.1819               467.7275
 Red. masses --      4.7968                 3.0369                 2.2525
 Frc consts  --      0.4695                 0.3219                 0.2903
 IR Inten    --      0.0000                 0.1009                 5.7995
 Raman Activ --      1.4467                 0.0000                 0.0000

                     10                     11                     12
                     BU                     AG                     BG
 Frequencies --    486.7155               578.5209               656.3029
 Red. masses --      3.2422                 2.8268                 2.0745
 Frc consts  --      0.4525                 0.5574                 0.5265
 IR Inten    --      1.8987                 0.0000                 0.0000
 Raman Activ --      0.0000                 9.6404                12.5940

                     13                     14                     15
                     AG                     AU                     BU
 Frequencies --    673.6056               706.3896               735.1621
 Red. masses --      6.9111                 1.4894                 3.1841
 Frc consts  --      1.8476                 0.4379                 1.0139
 IR Inten    --      0.0000                 0.4346                 4.3426
 Raman Activ --      7.8374                 0.0000                 0.0000

                     16                     17                     18
                     BG                     AG                     BG
 Frequencies --    810.1992               862.7174               895.3778
 Red. masses --      3.3332                 4.4424                 1.2562
 Frc consts  --      1.2891                 1.9481                 0.5934
 IR Inten    --      0.0000                 0.0000                 0.0000
 Raman Activ --     12.0353                 8.6542                 5.1911

                     19                     20                     21
                     AU                     BG                     AU
 Frequencies --    897.3585               980.3525               980.4605
 Red. masses --      1.6953                 1.3643                 1.3669
 Frc consts  --      0.8043                 0.7726                 0.7742
 IR Inten    --     26.3677                 0.0000                36.2466
 Raman Activ --      0.0000                 2.6357                 0.0000

                     22                     23                     24
                     BG                     AU                     BU
 Frequencies --   1019.6740              1038.1934              1073.5018
 Red. masses --      1.2585                 1.3327                 2.9164
 Frc consts  --      0.7710                 0.8463                 1.9801
 IR Inten    --      0.0000                 0.0158                 0.5806
 Raman Activ --      5.4133                 0.0000                 0.0000

                     25                     26                     27
                     BU                     AU                     BG
 Frequencies --   1101.4825              1105.9373              1106.0916
 Red. masses --      1.4461                 1.0902                 1.0916
 Frc consts  --      1.0337                 0.7856                 0.7868
 IR Inten    --      8.9531                13.3013                 0.0000
 Raman Activ --      0.0000                 0.0000                 1.8601

                     28                     29                     30
                     AG                     BU                     AG
 Frequencies --   1109.9061              1204.9436              1262.9538
 Red. masses --      1.5056                 1.3531                 1.2421
 Frc consts  --      1.0928                 1.1575                 1.1673
 IR Inten    --      0.0000                 1.4924                 0.0000
 Raman Activ --     15.5194                 0.0000               181.6881

                     31                     32                     33
                     BU                     AG                     BU
 Frequencies --   1284.8887              1296.2006              1351.4235
 Red. masses --      2.3332                 2.8298                 5.2187
 Frc consts  --      2.2696                 2.8013                 5.6155
 IR Inten    --      0.0825                 0.0000                 9.4696
 Raman Activ --      0.0000               119.5615                 0.0000

                     34                     35                     36
                     AG                     BU                     AG
 Frequencies --   1398.7706              1420.6427              1426.7735
 Red. masses --      1.4217                 1.3385                 1.2532
 Frc consts  --      1.6389                 1.5916                 1.5031
 IR Inten    --      0.0000                 8.2361                 0.0000
 Raman Activ --     17.6651                 0.0000                62.3288

                     37                     38                     39
                     BU                     AG                     BU
 Frequencies --   1515.0520              1565.6538              1575.3058
 Red. masses --      2.5513                 1.3009                 1.2967
 Frc consts  --      3.4503                 1.8789                 1.8960
 IR Inten    --     18.8074                 0.0000                 0.5549
 Raman Activ --      0.0000               344.1432                 0.0000

                     40                     41                     42
                     BU                     AG                     AG
 Frequencies --   1641.3389              1691.4224              1740.0595
 Red. masses --      2.4971                 5.1093                 5.6161
 Frc consts  --      3.9635                 8.6123                10.0188
 IR Inten    --     15.0450                 0.0000                 0.0000
 Raman Activ --      0.0000                18.3879              1064.0059

                     43                     44                     45
                     AG                     BU                     BU
 Frequencies --   1814.4621              1815.3401              3396.5256
 Red. masses --      3.9782                 3.9414                 1.0630
 Frc consts  --      7.7167                 7.6527                 7.2251
 IR Inten    --      0.0000                 1.4874                98.3195
 Raman Activ --    502.7370                 0.0000                 0.0000

                     46                     47                     48
                     AG                     BU                     AG
 Frequencies --   3397.2438              3437.9200              3437.9659
 Red. masses --      1.0629                 1.0978                 1.0978
 Frc consts  --      7.2278                 7.6447                 7.6451
 IR Inten    --      0.0000                 4.4061                 0.0000
 Raman Activ --     68.9762                 0.0000               108.9630

                     49                     50                     51
                     BU                     AG                     BU
 Frequencies --   3447.0268              3450.5480              3466.9005
 Red. masses --      1.0917                 1.0916                 1.0986
 Frc consts  --      7.6425                 7.6573                 7.7798
 IR Inten    --      0.7818                 0.0000                 5.9008
 Raman Activ --      0.0000                57.5686                 0.0000

                     52                     53                     54
                     AG                     BU                     AG
 Frequencies --   3469.8386              3548.4139              3548.4260
 Red. masses --      1.0995                 1.1182                 1.1182
 Frc consts  --      7.7996                 8.2957                 8.2957
 IR Inten    --      0.0000                 0.0043                 0.0000
 Raman Activ --    103.3785                 0.0000               137.6843

 - Thermochemistry -
 -------------------
 Temperature   298.150 Kelvin.  Pressure   1.00000 Atm.
 Atom     1 has atomic number  6 and mass  12.00000

 Molecular mass:   130.07825 amu.
 Principal axes and moments of inertia in atomic units:
                           1         2         3
     Eigenvalues --   390.088542634.890903024.97944
           X           -0.02413   0.99971   0.00000
           Y            0.99971   0.02413   0.00000
           Z            0.00000   0.00000   1.00000
 This molecule is an asymmetric top.
 Rotational symmetry number  2.
 Rotational temperatures (Kelvin)      0.22204     0.03287     0.02863
 Rotational constants (GHZ):           4.62649     0.68494     0.59661
 Zero-point vibrational energy     465057.7 (Joules/Mol)
                                  111.15145 (Kcal/Mol)
 Warning -- explicit consideration of  11 degrees of freedom as
           vibrations may cause significant error
 Vibrational temperatures:     76.42   121.73   214.70   258.05   379.02
          (Kelvin)            429.25   586.44   610.30   672.96   700.27
                              832.36   944.27   969.17  1016.34  1057.73
                             1165.70  1241.26  1288.25  1291.10  1410.51
                             1410.66  1467.08  1493.73  1544.53  1584.79
                             1591.20  1591.42  1596.91  1733.65  1817.11
                             1848.67  1864.94  1944.40  2012.52  2043.99
                             2052.81  2179.82  2252.63  2266.51  2361.52
                             2433.58  2503.56  2610.61  2611.87  4886.84
                             4887.88  4946.40  4946.47  4959.50  4964.57
                             4988.10  4992.32  5105.38  5105.39

 Zero-point correction=                           0.177131 (Hartree/Particle)
 Thermal correction to Energy=                    0.186015
 Thermal correction to Enthalpy=                  0.186960
 Thermal correction to Gibbs Free Energy=         0.143348
 Sum of electronic and zero-point Energies=           -382.131135
 Sum of electronic and thermal Energies=              -382.122251
 Sum of electronic and thermal Enthalpies=            -382.121307
 Sum of electronic and thermal Free Energies=         -382.164919

                     E (Thermal)             CV                S
                      KCal/Mol        Cal/Mol-Kelvin    Cal/Mol-Kelvin
 Total                  116.726             33.556             91.789
 Electronic               0.000              0.000              0.000
 Translational            0.889              2.981             40.502
 Rotational               0.889              2.981             28.143
 Vibrational            114.949             27.594             23.144
 Vibration     1          0.596              1.976              4.698
 Vibration     2          0.601              1.960              3.781
 Vibration     3          0.618              1.904              2.682
 Vibration     4          0.629              1.868              2.335
 Vibration     5          0.670              1.740              1.639
 Vibration     6          0.691              1.677              1.426
 Vibration     7          0.772              1.454              0.935
 Vibration     8          0.786              1.418              0.878
 Vibration     9          0.825              1.322              0.744
 Vibration    10          0.843              1.280              0.692
 Vibration    11          0.935              1.078              0.488

 Optimization completed.
    -- Stationary point found.
 Normal termination of Gaussian 16 at Wed Apr  4 10:27:10 2018.
