 Gaussian 16, Revision A.03,
 Gaussian 16:  ES64L-G16RevA.03 25-Dec-2016

 ------------------------------------------------------------
 #p gfinput iop(6/7=3) iop(3/33=1) #B3LYP/Gen pseudo=read #SP
 ------------------------------------------------------------

 -------------------------------
 Mo4OCl4 restricted single point
 -------------------------------
 Symbolic Z-matrix:
 Charge = -2 Multiplicity = 1

                         Standard orientation:
 ---------------------------------------------------------------------
 Center     Atomic      Atomic             Coordinates (Angstroms)
 Number     Number       Type             X           Y           Z
 ---------------------------------------------------------------------
      1         42           0        0.000006    0.295685    0.000000
      2          8           0        0.000004    1.985379    0.000000
      3         17           0        2.420224   -0.416209    0.000000
      4         17           0        0.000004   -0.416204    2.420236
      5         17           0       -2.420249   -0.416198    0.000000
      6         17           0        0.000004   -0.416204   -2.420236
 ---------------------------------------------------------------------

 SCF Done:  E(RB3LYP) =  -202.713633575     A.U. after   13 cycles

 The electronic state is 1-A'.
 Alpha  occ. eigenvalues --  -18.86921  -2.22098  -1.28648  -1.22269  -1.22269
 Alpha  occ. eigenvalues --   -0.61059  -0.41377  -0.40233  -0.40233  -0.39987
 Alpha  occ. eigenvalues --   -0.09008  -0.07583  -0.07583  -0.00905  -0.00538
 Alpha  occ. eigenvalues --    0.00050   0.01519   0.01519   0.02864   0.04794
 Alpha  occ. eigenvalues --    0.04794   0.05702   0.06030   0.06030   0.07848
 Alpha  occ. eigenvalues --    0.13388
 Alpha virt. eigenvalues --    0.24819   0.24819   0.29041   0.29323   0.36101
 Alpha virt. eigenvalues --    0.44391   0.45857   0.45857   1.24957   1.24957
 Alpha virt. eigenvalues --    1.26150   1.56999   2.07039   2.07090   2.08445

 Mulliken charges:
               1
     1  Mo   0.623379
     2  O   -0.466090
     3  Cl  -0.539319
     4  Cl  -0.539322
     5  Cl  -0.539326
     6  Cl  -0.539322
 Sum of Mulliken charges =  -2.00000

 Dipole moment (field-independent basis, Debye):
    X=              0.0001    Y=              1.0675    Z=              0.0000  Tot=              1.0675
 Quadrupole moment (field-independent basis, Debye-Ang):
   XX=           -111.1786   YY=            -87.6786   ZZ=           -111.1786
   XY=              0.0000   XZ=             -0.0000   YZ=              0.0000

 Normal termination of Gaussian 16 at Wed Apr  4 10:14:19 2018.
