 Gaussian 16, Revision A.03,
 Gaussian 16:  ES64L-G16RevA.03 25-Dec-2016

 ----------------------
 #P MP5/STO-3G Pop=Full
 ----------------------

 -----
 Water
 -----
 Symbolic Z-matrix:
 Charge =  0 Multiplicity = 1

                         Standard orientation:
 ---------------------------------------------------------------------
 Center     Atomic      Atomic             Coordinates (Angstroms)
 Number     Number       Type             X           Y           Z
 ---------------------------------------------------------------------
      1          8           0       -0.000000    0.000000    0.119159
      2          1           0       -0.000000    0.790649   -0.476637
      3          1           0       -0.000000   -0.790649   -0.476637
 ---------------------------------------------------------------------

 SCF Done:  E(UHF) =  -74.9643287914     A.U. after    7 cycles
 E2 =    -0.3795333610D-01 EUMP2 =    -0.75002282127454D+02

 The electronic state is 1-A1.
 Alpha  occ. eigenvalues --  -20.24375  -1.25064  -0.60317  -0.44547  -0.38821
 Alpha virt. eigenvalues --    0.57075   0.70859
  Beta  occ. eigenvalues --  -20.24375  -1.25064  -0.60317  -0.44547  -0.38821
  Beta virt. eigenvalues --    0.57075   0.70859

 Mulliken charges and spin densities:
               1          2
     1  O   -0.339215  -0.000000
     2  H    0.169607  -0.000000
     3  H    0.169607  -0.000000
 Sum of Mulliken charges =  -0.00000  -0.00000

 Dipole moment (field-independent basis, Debye):
    X=             -0.0000    Y=             -0.0000    Z=             -1.6735  Tot=              1.6735
 Quadrupole moment (field-independent basis, Debye-Ang):
   XX=             -6.1213   YY=             -4.2950   ZZ=             -5.4175
   XY=              0.0000   XZ=              0.0000   YZ=              0.0000

 Normal termination of Gaussian 16 at Wed Apr  4 10:15:35 2018.
