 Gaussian 16, Revision C.01,
 Gaussian 16:  ES64L-G16RevC.01  3-Jul-2019

 ---------------------------------
 #p SCF=(DIIS) Symmetry=(Tight) G4
 ---------------------------------

 ---------------
 water_Gaussian4
 ---------------
 Symbolic Z-matrix:
 Charge =  0 Multiplicity = 1

 SCF Done:  E(RB3LYP) =  -76.4244414931     A.U. after    9 cycles
 SCF Done:  E(RB3LYP) =  -76.4260445227     A.U. after    9 cycles
 SCF Done:  E(RB3LYP) =  -76.4260776704     A.U. after    7 cycles
 Optimization completed.
    -- Stationary point found.
 Normal termination of Gaussian 16 at Sun Sep 24 18:46:15 2023.

 ----------------------------------------------------------
 #P Geom=AllCheck Guess=TCheck SCRF=Check B3LYP/GTBas3 Freq
 ----------------------------------------------------------

 Structure from the checkpoint file:  "water.chk"
 ---------------
 water_Gaussian4
 ---------------
 Charge =  0 Multiplicity = 1

 SCF Done:  E(RB3LYP) =  -76.4260776704     A.U. after    1 cycles

  Exact polarizability:       4.492       0.000       8.049      -0.000      -0.000       6.404
 Approx polarizability:       5.265       0.000      10.301       0.000      -0.000       8.455

                      1                      2                      3
                     A1                     A1                     B2
 Frequencies --   1672.8473              3802.4547              3905.4780
 Red. masses --      1.0826                 1.0452                 1.0810
 Frc consts  --      1.7850                 8.9039                 9.7142
 IR Inten    --     71.7496                 2.6744                27.3500

 - Thermochemistry -
 -------------------
 Temperature   298.150 Kelvin.  Pressure   1.00000 Atm.
 Atom     1 has atomic number  8 and mass  15.99491

 Molecular mass:    18.01056 amu.
 Principal axes and moments of inertia in atomic units:
                           1         2         3
     Eigenvalues --     2.26346   4.11614   6.37960
           X           -0.00000   0.00000   1.00000
           Y            1.00000   0.00000   0.00000
           Z           -0.00000   1.00000   0.00000
 This molecule is an asymmetric top.
 Rotational symmetry number  2.
 Rotational temperatures (Kelvin)     38.26614    21.04251    13.57670
 Rotational constants (GHZ):         797.33684   438.45479   282.89248
 Zero-point vibrational energy      56109.5 (Joules/Mol)
                                   13.41050 (Kcal/Mol)
 Vibrational temperatures:   2406.85  5470.88  5619.11
          (Kelvin)

 Zero-point correction=                           0.021371 (Hartree/Particle)
 Thermal correction to Energy=                    0.024206
 Thermal correction to Enthalpy=                  0.025150
 Thermal correction to Gibbs Free Energy=         0.003723
 Sum of electronic and zero-point Energies=            -76.404707
 Sum of electronic and thermal Energies=               -76.401872
 Sum of electronic and thermal Enthalpies=             -76.400928
 Sum of electronic and thermal Free Energies=          -76.422355

                     E (Thermal)             CV                S
                      KCal/Mol        Cal/Mol-Kelvin    Cal/Mol-Kelvin
 Total                   15.189              6.002             45.098
 Electronic               0.000              0.000              0.000
 Translational            0.889              2.981             34.608
 Rotational               0.889              2.981             10.484
 Vibrational             13.412              0.040              0.006

 Optimization completed.
    -- Stationary point found.
 Normal termination of Gaussian 16 at Sun Sep 24 18:46:41 2023.

 -----------------------------------------------------------------
 #P Geom=AllCheck Guess=TCheck SCRF=Check CCSD(T,E4T,FrzG4)/GTBas1
 -----------------------------------------------------------------

 Structure from the checkpoint file:  "water.chk"
 ---------------
 water_Gaussian4
 ---------------
 Charge =  0 Multiplicity = 1

 SCF Done:  E(RHF) =  -76.0102274752     A.U. after    9 cycles
 E2 =    -0.1865327553D+00 EUMP2 =    -0.76196760230472D+02
 CCSD(T)
 CCSD(T)= -0.76207702410D+02
 8118\CCSD(T)=-76.2077024\RMSD=8.783e-09\PG=C02V [C2(O1),SGV(H2)]\\@
 Normal termination of Gaussian 16 at Sun Sep 24 18:46:46 2023.

 ---------------------------------------------------------
 #P Geom=AllCheck Guess=TCheck SCRF=Check MP4=FrzG4/GTBas2
 ---------------------------------------------------------

 Structure from the checkpoint file:  "water.chk"
 ---------------
 water_Gaussian4
 ---------------
 Charge =  0 Multiplicity = 1

 SCF Done:  E(RHF) =  -76.0171243089     A.U. after   10 cycles
 E2 =    -0.1923898052D+00 EUMP2 =    -0.76209514114130D+02
 Normal termination of Gaussian 16 at Sun Sep 24 18:46:48 2023.

 ---------------------------------------------------------
 #P Geom=AllCheck Guess=TCheck SCRF=Check MP4=FrzG4/GTBas3
 ---------------------------------------------------------

 Structure from the checkpoint file:  "water.chk"
 ---------------
 water_Gaussian4
 ---------------
 Charge =  0 Multiplicity = 1

 SCF Done:  E(RHF) =  -76.0283253421     A.U. after   10 cycles
 E2 =    -0.2389744477D+00 EUMP2 =    -0.76267299789752D+02
 Normal termination of Gaussian 16 at Sun Sep 24 18:46:50 2023.

 -----------------------------------------------------------
 #P Geom=AllCheck Guess=TCheck SCRF=Check MP2=Full/GTLargeXP
 -----------------------------------------------------------

 Structure from the checkpoint file:  "water.chk"
 ---------------
 water_Gaussian4
 ---------------
 Charge =  0 Multiplicity = 1

 SCF Done:  E(RHF) =  -76.0573500941     A.U. after   10 cycles
 E2 =    -0.3081045566D+00 EUMP2 =    -0.76365454650712D+02
 Normal termination of Gaussian 16 at Sun Sep 24 18:46:53 2023.
 SCF Done:  E(RHF) =  -76.0648718946     A.U. after    8 cycles
 Normal termination of Gaussian 16 at Sun Sep 24 18:46:55 2023.

                         Standard orientation:
 ---------------------------------------------------------------------
 Center     Atomic      Atomic             Coordinates (Angstroms)
 Number     Number       Type             X           Y           Z
 ---------------------------------------------------------------------
      1          8           0        0.000000    0.000000    0.119010
      2          1           0       -0.000000    0.756203   -0.476039
      3          1           0       -0.000000   -0.756203   -0.476039
 ---------------------------------------------------------------------

 SCF Done:  E(RHF) =  -76.0666515087     A.U. after    8 cycles

 The electronic state is 1-A1.
 Alpha  occ. eigenvalues --  -20.56513  -1.35063  -0.71317  -0.58565  -0.51032
 Alpha virt. eigenvalues --    0.08729   0.09565   0.10332   0.11365   0.19607
 Alpha virt. eigenvalues --    0.24557   0.40603   0.43182   0.48191   0.51188
 Alpha virt. eigenvalues --    0.51301   0.58634   0.65125   0.71060   0.82377

 Mulliken charges:
               1
     1  O   -0.694702
     2  H    0.347351
     3  H    0.347351
 Sum of Mulliken charges =   0.00000

 Dipole moment (field-independent basis, Debye):
    X=             -0.0000    Y=              0.0000    Z=             -2.0300  Tot=              2.0300
 Quadrupole moment (field-independent basis, Debye-Ang):
   XX=             -7.5506   YY=             -4.2702   ZZ=             -6.2140
   XY=              0.0000   XZ=              0.0000   YZ=             -0.0000

 Normal termination of Gaussian 16 at Sun Sep 24 18:47:02 2023.
