                              Psi4 1.0.54 Driver

  ==> Input File <==

--------------------------------------------------------------------------
molecule dvb {
    1 2
    C    -1.4152533224   0.2302217854   0.0000000000
    C     1.4152533224  -0.2302217854   0.0000000000
    C    -0.4951331558   1.3144608674   0.0000000000
    C     0.4951331558  -1.3144608674   0.0000000000
    C     0.8894090436   1.0909493743   0.0000000000
    C    -0.8894090436  -1.0909493743   0.0000000000
    H    -0.8795511985   2.3437343748   0.0000000000
    H     0.8795511985  -2.3437343748   0.0000000000
    H     1.5779041557   1.9450061275   0.0000000000
    H    -1.5779041557  -1.9450061275   0.0000000000
    C     2.8845844962  -0.5210893778   0.0000000000
    C    -2.8845844962   0.5210893778   0.0000000000
    H     3.1403356810  -1.5919605685   0.0000000000
    H    -3.1403356810   1.5919605685   0.0000000000
    C     3.8800428103   0.3822535424   0.0000000000
    C    -3.8800428103  -0.3822535424   0.0000000000
    H     3.6946765858   1.4624389570   0.0000000000
    H    -3.6946765858  -1.4624389570   0.0000000000
    H     4.9316453546   0.0711049543   0.0000000000
    H    -4.9316453546  -0.0711049543   0.0000000000
}

set {
    basis sto-3g
    reference uhf
    print_basis true
    print_mos true
}

b3lyp_e, b3lyp_wfn = energy('b3lyp', return_wfn=True)
oeprop(b3lyp_wfn, 'MULLIKEN_CHARGES', 'LOWDIN_CHARGES', 'MULTIPOLES(5)')
--------------------------------------------------------------------------

    Molecular point group: c2h

    Geometry (in Angstrom), charge = 1, multiplicity = 2:

       Center              X                  Y                   Z               Mass
    ------------   -----------------  -----------------  -----------------  -----------------
           C         -1.415253322400     0.230221785400     0.000000000000    12.000000000000
           C          1.415253322400    -0.230221785400     0.000000000000    12.000000000000
           C         -0.495133155800     1.314460867400     0.000000000000    12.000000000000
           C          0.495133155800    -1.314460867400     0.000000000000    12.000000000000
           C          0.889409043600     1.090949374300     0.000000000000    12.000000000000
           C         -0.889409043600    -1.090949374300     0.000000000000    12.000000000000
           H         -0.879551198500     2.343734374800     0.000000000000     1.007825032070
           H          0.879551198500    -2.343734374800     0.000000000000     1.007825032070
           H          1.577904155700     1.945006127500     0.000000000000     1.007825032070
           H         -1.577904155700    -1.945006127500     0.000000000000     1.007825032070
           C          2.884584496200    -0.521089377800     0.000000000000    12.000000000000
           C         -2.884584496200     0.521089377800     0.000000000000    12.000000000000
           H          3.140335681000    -1.591960568500     0.000000000000     1.007825032070
           H         -3.140335681000     1.591960568500     0.000000000000     1.007825032070
           C          3.880042810300     0.382253542400     0.000000000000    12.000000000000
           C         -3.880042810300    -0.382253542400     0.000000000000    12.000000000000
           H          3.694676585800     1.462438957000     0.000000000000     1.007825032070
           H         -3.694676585800    -1.462438957000     0.000000000000     1.007825032070
           H          4.931645354600     0.071104954300     0.000000000000     1.007825032070
           H         -4.931645354600    -0.071104954300     0.000000000000     1.007825032070

  Charge       = 1
  Multiplicity = 2
  Basis Set: STO-3G
   => B3LYP Composite Functional <=
  Basis Set:

    Orbital Energies (a.u.)
    -----------------------

    Alpha Occupied:

       1Bu   -10.254153     1Ag   -10.254103     2Bu   -10.220075
       2Ag   -10.220034     3Bu   -10.218614     3Ag   -10.218516
       4Bu   -10.218126     4Ag   -10.218122     5Bu   -10.215793
       5Ag   -10.215793     6Ag    -1.020762     6Bu    -0.961939
       7Ag    -0.921631     7Bu    -0.899274     8Bu    -0.876746
       8Ag    -0.787123     9Ag    -0.759876     9Bu    -0.722516
      10Ag    -0.703603    11Ag    -0.650479    10Bu    -0.634977
      11Bu    -0.604000    12Bu    -0.596105    12Ag    -0.587827
      13Bu    -0.568876    14Bu    -0.552245    13Ag    -0.537115
       1Au    -0.533653    15Bu    -0.501075    14Ag    -0.493311
      15Ag    -0.482726     1Bg    -0.473631     2Au    -0.417926
       2Bg    -0.394361     3Bg    -0.369718

    Alpha Virtual:

       3Au    -0.177440     4Au    -0.111512     4Bg    -0.094332
       5Au    -0.029597     5Bg     0.059989    16Ag     0.139734
      16Bu     0.149013    17Bu     0.179259    17Ag     0.196485
      18Ag     0.214703    18Bu     0.220380    19Ag     0.239702
      19Bu     0.240604    20Bu     0.263046    20Ag     0.285341
      21Ag     0.319823    21Bu     0.344279    22Ag     0.380025
      22Bu     0.397814    23Bu     0.425501    23Ag     0.438189
      24Ag     0.477746    24Bu     0.506036    25Ag     0.567572
      25Bu     0.581799

    Beta Occupied:

       1Bu   -10.251176     1Ag   -10.251130     2Bu   -10.219748
       2Ag   -10.219711     3Ag   -10.218971     3Bu   -10.218970
       4Bu   -10.218408     4Ag   -10.218306     5Ag   -10.211329
       5Bu   -10.211329     6Ag    -1.014708     6Bu    -0.954502
       7Ag    -0.913757     7Bu    -0.897625     8Bu    -0.864549
       8Ag    -0.781836     9Ag    -0.755813     9Bu    -0.718619
      10Ag    -0.700471    11Ag    -0.648281    10Bu    -0.632907
      11Bu    -0.601290    12Bu    -0.593273    12Ag    -0.584929
      13Bu    -0.568172    14Bu    -0.549296    13Ag    -0.535163
       1Au    -0.517380    15Bu    -0.499458    14Ag    -0.491806
      15Ag    -0.481158     1Bg    -0.450811     2Bg    -0.391178
       2Au    -0.388762

    Beta Virtual:

       3Bg    -0.300488     3Au    -0.147009     4Au    -0.103408
       4Bg    -0.073626     5Au    -0.008233     5Bg     0.076179
      16Ag     0.142185    16Bu     0.150887    17Bu     0.181157
      17Ag     0.197962    18Ag     0.220369    18Bu     0.225766
      19Bu     0.242053    19Ag     0.246355    20Bu     0.270059
      20Ag     0.290488    21Ag     0.323551    21Bu     0.347732
      22Ag     0.381520    22Bu     0.399993    23Bu     0.429820
      23Ag     0.440753    24Ag     0.481522    24Bu     0.511450
      25Ag     0.571310    25Bu     0.584938

    Final Occupation by Irrep:
             Ag    Bg    Au    Bu
    DOCC [    15,    2,    2,   15 ]
    SOCC [     0,    1,    0,    0 ]

  Energy converged.

  @DF-UKS Final Energy:  -382.08732922335037

   => Energetics <=

    Nuclear Repulsion Energy =            445.9369781142434022
    One-Electron Energy =               -1386.6350851133754531
    Two-Electron Energy =                 605.0035757243789476
    DFT Exchange-Correlation Energy =     -46.3927979485972983
    Empirical Dispersion Energy =           0.0000000000000000
    PCM Polarization Energy =               0.0000000000000000
    EFP Energy =                            0.0000000000000000
    Total Energy =                       -382.0873292233504230

  Saving occupied orbitals to File 180.

  UHF NO Occupations:
  HONO-2 :    2 Bg 1.9974743
  HONO-1 :    2 Au 1.9899443
  HONO-0 :    3 Bg 1.0000000
  LUNO+0 :    3 Au 0.0100557
  LUNO+1 :    4 Bg 0.0025257
  LUNO+2 :    4 Au 0.0008988
  LUNO+3 :   16 Ag 0.0000998

  ==> Alpha-Spin Molecular Orbitals <==

                 1            2            3            4            5

    1    0.7002711    0.7002949    0.0098951    0.0062150    0.0057713
    2    0.0312522    0.0310580   -0.0075759   -0.0040941   -0.0046698
    3    0.0000000    0.0000000    0.0000000    0.0000000    0.0000000
    4    0.0010234    0.0007501   -0.0024075   -0.0008525   -0.0025848
    5   -0.0000442    0.0000057    0.0032157    0.0048248   -0.0040477
    6   -0.7002711    0.7002949   -0.0098951    0.0062150   -0.0057713
    7   -0.0312522    0.0310580    0.0075759   -0.0040941    0.0046698
    8    0.0000000    0.0000000    0.0000000    0.0000000    0.0000000
    9    0.0010234   -0.0007501   -0.0024075    0.0008525   -0.0025848
   10   -0.0000442   -0.0000057    0.0032157   -0.0048248   -0.0040477
   11   -0.0070127   -0.0074361    0.1554671   -0.1798906    0.6828308
   12   -0.0071226   -0.0065299    0.0134806   -0.0141610    0.0287341
   13    0.0000000    0.0000000    0.0000000    0.0000000    0.0000000
   14    0.0026955    0.0029160    0.0043526   -0.0043169   -0.0004761
   15    0.0035394    0.0033628   -0.0010594    0.0009896   -0.0009059
   16    0.0070127   -0.0074361   -0.1554671   -0.1798906   -0.6828308
   17    0.0071226   -0.0065299   -0.0134806   -0.0141610   -0.0287341
   18    0.0000000    0.0000000    0.0000000    0.0000000    0.0000000
   19    0.0026955   -0.0029160    0.0043526    0.0043169   -0.0004761
   20    0.0035394   -0.0033628   -0.0010594   -0.0009896   -0.0009059
   21    0.0073350   -0.0077160   -0.6827185    0.6767194    0.1564638
   22    0.0070914   -0.0064821   -0.0317685    0.0314618    0.0003347
   23    0.0000000    0.0000000    0.0000000    0.0000000    0.0000000
   24    0.0014268   -0.0017035    0.0017711   -0.0017236    0.0041009
   25   -0.0041866    0.0040700    0.0007412   -0.0004283   -0.0007580
   26   -0.0073350   -0.0077160    0.6827185    0.6767194   -0.1564638
   27   -0.0070914   -0.0064821    0.0317685    0.0314618   -0.0003347
   28    0.0000000    0.0000000    0.0000000    0.0000000    0.0000000
   29    0.0014268    0.0017035    0.0017711    0.0017236    0.0041009
   30   -0.0041866   -0.0040700    0.0007412    0.0004283   -0.0007580
   31    0.0002227    0.0001107   -0.0015662    0.0016670   -0.0060374
   32   -0.0002227    0.0001107    0.0015662    0.0016670    0.0060374
   33   -0.0002180    0.0001085    0.0061578   -0.0061688   -0.0012214
   34    0.0002180    0.0001085   -0.0061578   -0.0061688    0.0012214
   35    0.0088244   -0.0089333    0.0017138   -0.0040024    0.0132609
   36    0.0058749   -0.0059370   -0.0001607   -0.0001047    0.0004407
   37    0.0000000    0.0000000    0.0000000    0.0000000    0.0000000
   38   -0.0039844    0.0040271    0.0000533    0.0000510    0.0000413
   39    0.0008650   -0.0008733   -0.0000668    0.0001165    0.0000048
   40   -0.0088244   -0.0089333   -0.0017138   -0.0040024   -0.0132609
   41   -0.0058749   -0.0059370    0.0001607   -0.0001047   -0.0004407
   42    0.0000000    0.0000000    0.0000000    0.0000000    0.0000000
   43   -0.0039844   -0.0040271    0.0000533   -0.0000510    0.0000413
   44    0.0008650    0.0008733   -0.0000668   -0.0001165    0.0000048
   45   -0.0001534    0.0001614    0.0000268   -0.0000125   -0.0000741
   46    0.0001534    0.0001614   -0.0000268   -0.0000125    0.0000741
   47   -0.0000364    0.0000434    0.0027144   -0.0020352   -0.0004251
   48   -0.0002727    0.0002728    0.0001912   -0.0001317   -0.0001140
   49    0.0000000    0.0000000    0.0000000    0.0000000    0.0000000
   50    0.0001896   -0.0001945   -0.0000687    0.0000375    0.0000391
   51   -0.0000832    0.0000837    0.0000516   -0.0000527    0.0000399
   52    0.0000364    0.0000434   -0.0027144   -0.0020352    0.0004251
   53    0.0002727    0.0002728   -0.0001912   -0.0001317    0.0001140
   54    0.0000000    0.0000000    0.0000000    0.0000000    0.0000000
   55    0.0001896    0.0001945   -0.0000687   -0.0000375    0.0000391
   56   -0.0000832   -0.0000837    0.0000516    0.0000527    0.0000399
   57    0.0001406   -0.0001331   -0.0001924    0.0001907    0.0000258
   58   -0.0001406   -0.0001331    0.0001924    0.0001907   -0.0000258
   59    0.0000238   -0.0000229   -0.0000025    0.0000017    0.0000036
   60   -0.0000238   -0.0000229    0.0000025    0.0000017   -0.0000036

 Ene   -10.2541530  -10.2541026  -10.2200746  -10.2200337  -10.2186138
 Sym            Bu           Ag           Bu           Ag           Bu
 Occ             1            1            1            1            1

                 6            7            8            9           10

    1    0.0096282    0.0099756    0.0107737    0.0008520    0.0008975
    2   -0.0067110   -0.0051785   -0.0056137   -0.0002449   -0.0002670
    3    0.0000000    0.0000000    0.0000000    0.0000000    0.0000000
    4   -0.0034702    0.0040079    0.0037645    0.0002417    0.0002315
    5   -0.0021277   -0.0006940   -0.0007575   -0.0000658   -0.0000725
    6    0.0096282   -0.0099756    0.0107737   -0.0008520    0.0008975
    7   -0.0067110    0.0051785   -0.0056137    0.0002449   -0.0002670
    8    0.0000000    0.0000000    0.0000000    0.0000000    0.0000000
    9    0.0034702    0.0040079   -0.0037645    0.0002417   -0.0002315
   10    0.0021277   -0.0006940    0.0007575   -0.0000658    0.0000725
   11    0.6750248    0.0131614    0.0513215    0.0013264    0.0036914
   12    0.0280352    0.0006719    0.0021206    0.0000707    0.0000542
   13    0.0000000    0.0000000    0.0000000    0.0000000    0.0000000
   14   -0.0007292   -0.0000267   -0.0001545    0.0000917    0.0000072
   15   -0.0005371   -0.0000007    0.0000694    0.0000033    0.0000237
   16    0.6750248   -0.0131614    0.0513215   -0.0013264    0.0036914
   17    0.0280352   -0.0006719    0.0021206   -0.0000707    0.0000542
   18    0.0000000    0.0000000    0.0000000    0.0000000    0.0000000
   19    0.0007292   -0.0000267    0.0001545    0.0000917   -0.0000072
   20    0.0005371   -0.0000007   -0.0000694    0.0000033   -0.0000237
   21    0.1799629    0.0016255    0.0175724   -0.0026339    0.0034521
   22    0.0016928   -0.0002245    0.0003984   -0.0000891    0.0000566
   23    0.0000000    0.0000000    0.0000000    0.0000000    0.0000000
   24    0.0040742    0.0000250    0.0004313    0.0001118   -0.0000638
   25   -0.0007339   -0.0000331    0.0000244   -0.0000068    0.0000045
   26    0.1799629   -0.0016255    0.0175724    0.0026339    0.0034521
   27    0.0016928    0.0002245    0.0003984    0.0000891    0.0000566
   28    0.0000000    0.0000000    0.0000000    0.0000000    0.0000000
   29   -0.0040742    0.0000250   -0.0004313    0.0001118    0.0000638
   30    0.0007339   -0.0000331   -0.0000244   -0.0000068   -0.0000045
   31   -0.0060965   -0.0001265   -0.0004893   -0.0000225   -0.0000468
   32   -0.0060965    0.0001265   -0.0004893    0.0000225   -0.0000468
   33   -0.0015873    0.0001355   -0.0003237   -0.0000738    0.0000657
   34   -0.0015873   -0.0001355   -0.0003237    0.0000738    0.0000657
   35   -0.0543563   -0.6977126    0.6956999   -0.0606892    0.0607897
   36   -0.0022861   -0.0312580    0.0311636    0.0046901   -0.0046865
   37    0.0000000    0.0000000    0.0000000    0.0000000    0.0000000
   38   -0.0000302   -0.0012331    0.0012468    0.0033305   -0.0033286
   39   -0.0000963   -0.0011651    0.0011599    0.0030702   -0.0030698
   40   -0.0543563    0.6977126    0.6956999    0.0606892    0.0607897
   41   -0.0022861    0.0312580    0.0311636   -0.0046901   -0.0046865
   42    0.0000000    0.0000000    0.0000000    0.0000000    0.0000000
   43    0.0000302   -0.0012331   -0.0012468    0.0033305    0.0033286
   44    0.0000963   -0.0011651   -0.0011599    0.0030702    0.0030698
   45    0.0004087    0.0063208   -0.0063083    0.0004235   -0.0004251
   46    0.0004087   -0.0063208   -0.0063083   -0.0004235   -0.0004251
   47    0.0002281    0.0598192   -0.0600865   -0.6979531    0.6979326
   48    0.0005038    0.0099105   -0.0099066   -0.0302663    0.0302638
   49    0.0000000    0.0000000    0.0000000    0.0000000    0.0000000
   50   -0.0001809   -0.0035286    0.0035252    0.0008357   -0.0008346
   51   -0.0002473   -0.0031198    0.0031106    0.0007640   -0.0007635
   52    0.0002281   -0.0598192   -0.0600865    0.6979531    0.6979326
   53    0.0005038   -0.0099105   -0.0099066    0.0302663    0.0302638
   54    0.0000000    0.0000000    0.0000000    0.0000000    0.0000000
   55    0.0001809   -0.0035286   -0.0035252    0.0008357    0.0008346
   56    0.0002473   -0.0031198   -0.0031106    0.0007640    0.0007635
   57    0.0000055   -0.0006647    0.0006693    0.0063121   -0.0063120
   58    0.0000055    0.0006647    0.0006693   -0.0063121   -0.0063120
   59   -0.0000321   -0.0006807    0.0006812    0.0062964   -0.0062963
   60   -0.0000321    0.0006807    0.0006812   -0.0062964   -0.0062963

 Ene   -10.2185157  -10.2181259  -10.2181225  -10.2157930  -10.2157928
 Sym            Ag           Bu           Ag           Bu           Ag
 Occ             1            1            1            1            1

                11           12           13           14           15

    1    0.1123577    0.1122985    0.0052671    0.0174102    0.0953946
    2   -0.2906255   -0.3021609   -0.0173207   -0.0482795   -0.2668590
    3    0.0000000    0.0000000    0.0000000    0.0000000    0.0000000
    4   -0.0478338    0.0254753    0.1005029   -0.0277619   -0.0670765
    5    0.0075886   -0.0008196   -0.0090116   -0.1352783    0.0267196
    6    0.1123577   -0.1122985    0.0052671   -0.0174102   -0.0953946
    7   -0.2906255    0.3021609   -0.0173207    0.0482795    0.2668590
    8    0.0000000    0.0000000    0.0000000    0.0000000    0.0000000
    9    0.0478338    0.0254753   -0.1005029   -0.0277619   -0.0670765
   10   -0.0075886   -0.0008196    0.0090116   -0.1352783    0.0267196
   11    0.0956283    0.0408177   -0.0439229    0.1345538    0.0323232
   12   -0.2392140   -0.1057913    0.1147824   -0.3639295   -0.0882404
   13    0.0000000    0.0000000    0.0000000    0.0000000    0.0000000
   14   -0.0122181    0.0621115    0.0345366   -0.0512341    0.0874804
   15    0.0611241    0.0334889   -0.0200164    0.0114114    0.0406868
   16    0.0956283   -0.0408177   -0.0439229   -0.1345538   -0.0323232
   17   -0.2392140    0.1057913    0.1147824    0.3639295    0.0882404
   18    0.0000000    0.0000000    0.0000000    0.0000000    0.0000000
   19    0.0122181    0.0621115   -0.0345366   -0.0512341    0.0874804
   20   -0.0611241    0.0334889    0.0200164    0.0114114    0.0406868
   21    0.0961547   -0.0466945   -0.0388550    0.1182731   -0.0748936
   22   -0.2411740    0.1218155    0.1011988   -0.3204337    0.2052702
   23    0.0000000    0.0000000    0.0000000    0.0000000    0.0000000
   24    0.0302122    0.0483078   -0.0468632    0.0692501    0.0391855
   25    0.0543482   -0.0515276   -0.0060730   -0.0256781   -0.0573573
   26    0.0961547    0.0466945   -0.0388550   -0.1182731    0.0748936
   27   -0.2411740   -0.1218155    0.1011988    0.3204337   -0.2052702
   28    0.0000000    0.0000000    0.0000000    0.0000000    0.0000000
   29   -0.0302122    0.0483078    0.0468632    0.0692501    0.0391855
   30   -0.0543482   -0.0515276    0.0060730   -0.0256781   -0.0573573
   31   -0.0373856   -0.0235221    0.0191172   -0.0869850   -0.0208893
   32   -0.0373856    0.0235221    0.0191172    0.0869850    0.0208893
   33   -0.0385955    0.0285438    0.0130004   -0.0788066    0.0469587
   34   -0.0385955   -0.0285438    0.0130004    0.0788066   -0.0469587
   35    0.0465549   -0.1081158    0.1194820    0.0023081    0.0615682
   36   -0.1180821    0.2789156   -0.3123594   -0.0051861   -0.1622569
   37    0.0000000    0.0000000    0.0000000    0.0000000    0.0000000
   38    0.0290016   -0.0131998   -0.0579065   -0.0232615   -0.1240411
   39   -0.0147204    0.0399906   -0.0562319   -0.0246812   -0.0465786
   40    0.0465549    0.1081158    0.1194820   -0.0023081   -0.0615682
   41   -0.1180821   -0.2789156   -0.3123594    0.0051861    0.1622569
   42    0.0000000    0.0000000    0.0000000    0.0000000    0.0000000
   43   -0.0290016   -0.0131998    0.0579065   -0.0232615   -0.1240411
   44    0.0147204    0.0399906    0.0562319   -0.0246812   -0.0465786
   45   -0.0203597    0.0542290   -0.0656846    0.0070307   -0.0380242
   46   -0.0203597   -0.0542290   -0.0656846   -0.0070307    0.0380242
   47    0.0227902   -0.0762379    0.1201340    0.0185107    0.1138573
   48   -0.0588112    0.2008727   -0.3225048   -0.0496354   -0.3135677
   49    0.0000000    0.0000000    0.0000000    0.0000000    0.0000000
   50    0.0204145   -0.0533640    0.0636061    0.0090062    0.0330761
   51    0.0121282   -0.0374024    0.0536329    0.0009400    0.0425399
   52    0.0227902    0.0762379    0.1201340   -0.0185107   -0.1138573
   53   -0.0588112   -0.2008727   -0.3225048    0.0496354    0.3135677
   54    0.0000000    0.0000000    0.0000000    0.0000000    0.0000000
   55   -0.0204145   -0.0533640   -0.0636061    0.0090062    0.0330761
   56   -0.0121282   -0.0374024   -0.0536329    0.0009400    0.0425399
   57   -0.0111858    0.0400257   -0.0669238   -0.0149530   -0.0690620
   58   -0.0111858   -0.0400257   -0.0669238    0.0149530    0.0690620
   59   -0.0080099    0.0338517   -0.0635414   -0.0099972   -0.0743860
   60   -0.0080099   -0.0338517   -0.0635414    0.0099972    0.0743860

 Ene    -1.0207624   -0.9619386   -0.9216312   -0.8992741   -0.8767461
 Sym            Ag           Bu           Ag           Bu           Bu
 Occ             1            1            1            1            1

                16           17           18           19           20

    1    0.0750304    0.0527878    0.0087774    0.0494108    0.0307387
    2   -0.2240597   -0.1601528   -0.0248226   -0.1508161   -0.1037246
    3    0.0000000    0.0000000    0.0000000    0.0000000    0.0000000
    4    0.0799496    0.0731904   -0.1613198   -0.1622736    0.1265880
    5   -0.1324260    0.2043367    0.0624284   -0.0099164   -0.0531106
    6    0.0750304    0.0527878   -0.0087774    0.0494108    0.0307387
    7   -0.2240597   -0.1601528    0.0248226   -0.1508161   -0.1037246
    8    0.0000000    0.0000000    0.0000000    0.0000000    0.0000000
    9   -0.0799496   -0.0731904   -0.1613198    0.1622736   -0.1265880
   10    0.1324260   -0.2043367    0.0624284    0.0099164    0.0531106
   11    0.0005785   -0.1130690    0.0500376   -0.0158470    0.0165007
   12   -0.0028594    0.3343546   -0.1535918    0.0545584   -0.0622185
   13    0.0000000    0.0000000    0.0000000    0.0000000    0.0000000
   14    0.1708027   -0.0370132   -0.0005612    0.0845533    0.1357724
   15    0.0307124    0.0575420    0.0129555    0.1904670   -0.1321579
   16    0.0005785   -0.1130690   -0.0500376   -0.0158470    0.0165007
   17   -0.0028594    0.3343546    0.1535918    0.0545584   -0.0622185
   18    0.0000000    0.0000000    0.0000000    0.0000000    0.0000000
   19   -0.1708027    0.0370132   -0.0005612   -0.0845533   -0.1357724
   20   -0.0307124   -0.0575420    0.0129555   -0.1904670    0.1321579
   21   -0.0866397    0.0570157   -0.0298846   -0.0528778   -0.0153362
   22    0.2490751   -0.1698875    0.0914980    0.1707219    0.0421454
   23    0.0000000    0.0000000    0.0000000    0.0000000    0.0000000
   24   -0.0321666   -0.1788359    0.0786802    0.0287732   -0.1315241
   25    0.0574746    0.0886572   -0.0432182    0.2035150   -0.0916737
   26   -0.0866397    0.0570157    0.0298846   -0.0528778   -0.0153362
   27    0.2490751   -0.1698875   -0.0914980    0.1707219    0.0421454
   28    0.0000000    0.0000000    0.0000000    0.0000000    0.0000000
   29    0.0321666    0.1788359    0.0786802   -0.0287732    0.1315241
   30   -0.0574746   -0.0886572   -0.0432182   -0.2035150    0.0916737
   31   -0.0157834    0.1442568   -0.0420703    0.1023800   -0.1223679
   32   -0.0157834    0.1442568    0.0420703    0.1023800   -0.1223679
   33    0.0966661   -0.0771509    0.0475597    0.1548005   -0.0883720
   34    0.0966661   -0.0771509   -0.0475597    0.1548005   -0.0883720
   35    0.0491204    0.0052590    0.1000383   -0.0600637   -0.0490984
   36   -0.1481871   -0.0174782   -0.3092477    0.1855599    0.1580231
   37    0.0000000    0.0000000    0.0000000    0.0000000    0.0000000
   38    0.1368840    0.0811450    0.0617856   -0.0170187    0.1822151
   39    0.0758778   -0.0424457    0.1097799   -0.0610275   -0.1081805
   40    0.0491204    0.0052590   -0.1000383   -0.0600637   -0.0490984
   41   -0.1481871   -0.0174782    0.3092477    0.1855599    0.1580231
   42    0.0000000    0.0000000    0.0000000    0.0000000    0.0000000
   43   -0.1368840   -0.0811450    0.0617856    0.0170187   -0.1822151
   44   -0.0758778    0.0424457    0.1097799    0.0610275    0.1081805
   45   -0.0656783    0.0280583   -0.1528286    0.0999250    0.1458917
   46   -0.0656783    0.0280583    0.1528286    0.0999250    0.1458917
   47   -0.0813234   -0.0402337   -0.0849723    0.0549818    0.0245737
   48    0.2389646    0.1225193    0.2683700   -0.1774643   -0.0911936
   49    0.0000000    0.0000000    0.0000000    0.0000000    0.0000000
   50    0.0264565    0.0416157    0.0878636   -0.0776786   -0.0132819
   51    0.0250799   -0.0169207    0.1174170   -0.0741964   -0.2282574
   52   -0.0813234   -0.0402337    0.0849723    0.0549818    0.0245737
   53    0.2389646    0.1225193   -0.2683700   -0.1774643   -0.0911936
   54    0.0000000    0.0000000    0.0000000    0.0000000    0.0000000
   55   -0.0264565   -0.0416157    0.0878636    0.0776786    0.0132819
   56   -0.0250799    0.0169207    0.1174170    0.0741964    0.2282574
   57    0.0861369    0.0222309    0.1472493   -0.0878017   -0.1779278
   58    0.0861369    0.0222309   -0.1472493   -0.0878017   -0.1779278
   59    0.0795947    0.0573818    0.1145068   -0.0879626   -0.0037123
   60    0.0795947    0.0573818   -0.1145068   -0.0879626   -0.0037123

 Ene    -0.7871229   -0.7598759   -0.7225158   -0.7036031   -0.6504789
 Sym            Ag           Ag           Bu           Ag           Ag
 Occ             1            1            1            1            1

                21           22           23           24           25

    1    0.0160726    0.0502092    0.0493631    0.0176219    0.0036383
    2   -0.0565981   -0.1753496   -0.1730138   -0.0601494   -0.0130230
    3    0.0000000    0.0000000    0.0000000    0.0000000    0.0000000
    4    0.1475713    0.0720047   -0.1549918    0.0021258   -0.1034903
    5    0.1738527   -0.1813999    0.1446348   -0.0108585   -0.1019971
    6   -0.0160726   -0.0502092   -0.0493631    0.0176219   -0.0036383
    7    0.0565981    0.1753496    0.1730138   -0.0601494    0.0130230
    8    0.0000000    0.0000000    0.0000000    0.0000000    0.0000000
    9    0.1475713    0.0720047   -0.1549918   -0.0021258   -0.1034903
   10    0.1738527   -0.1813999    0.1446348    0.0108585   -0.1019971
   11   -0.0159309   -0.0485277   -0.0266879   -0.0245591    0.0212944
   12    0.0544368    0.1666348    0.0958599    0.0830759   -0.0656936
   13    0.0000000    0.0000000    0.0000000    0.0000000    0.0000000
   14   -0.2149714    0.0893918   -0.0800189    0.0706946   -0.1198570
   15   -0.0238459    0.1836851    0.1147535   -0.0069410    0.3344922
   16    0.0159309    0.0485277    0.0266879   -0.0245591   -0.0212944
   17   -0.0544368   -0.1666348   -0.0958599    0.0830759    0.0656936
   18    0.0000000    0.0000000    0.0000000    0.0000000    0.0000000
   19   -0.2149714    0.0893918   -0.0800189   -0.0706946   -0.1198570
   20   -0.0238459    0.1836851    0.1147535    0.0069410    0.3344922
   21    0.0368814    0.0486420    0.0182242    0.0205285    0.0163738
   22   -0.1204011   -0.1682700   -0.0684143   -0.0762470   -0.0515270
   23    0.0000000    0.0000000    0.0000000    0.0000000    0.0000000
   24    0.1414777   -0.1801147   -0.0574953   -0.1288107    0.1929509
   25   -0.1044774    0.0137165   -0.2842063   -0.0355238    0.1961215
   26   -0.0368814   -0.0486420   -0.0182242    0.0205285   -0.0163738
   27    0.1204011    0.1682700    0.0684143   -0.0762470    0.0515270
   28    0.0000000    0.0000000    0.0000000    0.0000000    0.0000000
   29    0.1414777   -0.1801147   -0.0574953    0.1288107    0.1929509
   30   -0.1044774    0.0137165   -0.2842063    0.0355238    0.1961215
   31    0.0614709    0.1744820    0.1400522    0.0080430    0.2482341
   32   -0.0614709   -0.1744820   -0.1400522    0.0080430   -0.2482341
   33   -0.0379014   -0.1375700   -0.2338866   -0.1032175    0.1909221
   34    0.0379014    0.1375700    0.2338866   -0.1032175   -0.1909221

 Dipole X            :          0.0000000            0.0000000            0.0000000
 Dipole Y            :          0.0000000            0.0000000            0.0000000
 Dipole Z            :          0.0000000            0.0000000            0.0000000

  Lowdin Charges: (a.u.)
   Center  Symbol    Alpha    Beta     Spin     Total
       1     C     3.06168  2.85839  0.20329  0.07992
       2     C     3.06168  2.85839  0.20329  0.07992
       3     C     3.01091  2.98974  0.02117 -0.00065
       4     C     3.01091  2.98974  0.02117 -0.00065
       5     C     3.01582  2.98614  0.02968 -0.00195
       6     C     3.01582  2.98614  0.02968 -0.00195
       7     H     0.45945  0.46036 -0.00090  0.08019
       8     H     0.45945  0.46036 -0.00090  0.08019
       9     H     0.46074  0.46190 -0.00116  0.07735
      10     H     0.46074  0.46190 -0.00116  0.07735
      11     C     2.97680  3.02150 -0.04470  0.00170
      12     C     2.97680  3.02150 -0.04470  0.00170
      13     H     0.46204  0.46047  0.00157  0.07749
      14     H     0.46204  0.46047  0.00157  0.07749
      15     C     3.14896  2.83664  0.31232  0.01440
      16     C     3.14896  2.83664  0.31232  0.01440
      17     H     0.45533  0.46578 -0.01045  0.07889
      18     H     0.45533  0.46578 -0.01045  0.07889
      19     H     0.44827  0.45908 -0.01081  0.09266
      20     H     0.44827  0.45908 -0.01081  0.09266

  Total alpha = 35.00000, Total beta = 34.00000, Total charge =  1.00000

*** Psi4 exiting successfully. Buy a developer a beer!
