                              Psi4 1.0.54 Driver

  ==> Input File <==

--------------------------------------------------------------------------
molecule dvb {
    0 1
    C    -1.4152533224   0.2302217854   0.0000000000
    C     1.4152533224  -0.2302217854   0.0000000000
    C    -0.4951331558   1.3144608674   0.0000000000
    C     0.4951331558  -1.3144608674   0.0000000000
    C     0.8894090436   1.0909493743   0.0000000000
    C    -0.8894090436  -1.0909493743   0.0000000000
    H    -0.8795511985   2.3437343748   0.0000000000
    H     0.8795511985  -2.3437343748   0.0000000000
    H     1.5779041557   1.9450061275   0.0000000000
    H    -1.5779041557  -1.9450061275   0.0000000000
    C     2.8845844962  -0.5210893778   0.0000000000
    C    -2.8845844962   0.5210893778   0.0000000000
    H     3.1403356810  -1.5919605685   0.0000000000
    H    -3.1403356810   1.5919605685   0.0000000000
    C     3.8800428103   0.3822535424   0.0000000000
    C    -3.8800428103  -0.3822535424   0.0000000000
    H     3.6946765858   1.4624389570   0.0000000000
    H    -3.6946765858  -1.4624389570   0.0000000000
    H     4.9316453546   0.0711049543   0.0000000000
    H    -4.9316453546  -0.0711049543   0.0000000000
}

set {
    basis sto-3g
    print_basis true
    print_mos true
}

b3lyp_e, b3lyp_wfn = energy('b3lyp', return_wfn=True)
oeprop(b3lyp_wfn, 'MULLIKEN_CHARGES', 'LOWDIN_CHARGES', 'MULTIPOLES(5)')
--------------------------------------------------------------------------

    Molecular point group: c2h

    Geometry (in Angstrom), charge = 0, multiplicity = 1:

       Center              X                  Y                   Z               Mass
    ------------   -----------------  -----------------  -----------------  -----------------
           C         -1.415253322400     0.230221785400     0.000000000000    12.000000000000
           C          1.415253322400    -0.230221785400     0.000000000000    12.000000000000
           C         -0.495133155800     1.314460867400     0.000000000000    12.000000000000
           C          0.495133155800    -1.314460867400     0.000000000000    12.000000000000
           C          0.889409043600     1.090949374300     0.000000000000    12.000000000000
           C         -0.889409043600    -1.090949374300     0.000000000000    12.000000000000
           H         -0.879551198500     2.343734374800     0.000000000000     1.007825032070
           H          0.879551198500    -2.343734374800     0.000000000000     1.007825032070
           H          1.577904155700     1.945006127500     0.000000000000     1.007825032070
           H         -1.577904155700    -1.945006127500     0.000000000000     1.007825032070
           C          2.884584496200    -0.521089377800     0.000000000000    12.000000000000
           C         -2.884584496200     0.521089377800     0.000000000000    12.000000000000
           H          3.140335681000    -1.591960568500     0.000000000000     1.007825032070
           H         -3.140335681000     1.591960568500     0.000000000000     1.007825032070
           C          3.880042810300     0.382253542400     0.000000000000    12.000000000000
           C         -3.880042810300    -0.382253542400     0.000000000000    12.000000000000
           H          3.694676585800     1.462438957000     0.000000000000     1.007825032070
           H         -3.694676585800    -1.462438957000     0.000000000000     1.007825032070
           H          4.931645354600     0.071104954300     0.000000000000     1.007825032070
           H         -4.931645354600    -0.071104954300     0.000000000000     1.007825032070

  Charge       = 0
  Multiplicity = 1
  Basis Set: STO-3G
   => B3LYP Composite Functional <=
  Basis Set:

    Orbital Energies (a.u.)
    -----------------------

    Doubly Occupied:

       1Bu   -10.020769     1Ag   -10.020720     2Bu   -10.008484
       2Ag   -10.008483     3Ag   -10.007429     3Bu   -10.007427
       4Bu   -10.006783     4Ag   -10.006641     5Bu    -9.992698
       5Ag    -9.992698     6Ag    -0.809473     6Bu    -0.753957
       7Ag    -0.717882     7Bu    -0.699951     8Bu    -0.667341
       8Ag    -0.588525     9Ag    -0.559163     9Bu    -0.531446
      10Ag    -0.509946    11Ag    -0.457605    10Bu    -0.439205
      11Bu    -0.411036    12Bu    -0.397702    12Ag    -0.395951
      13Bu    -0.374458    14Bu    -0.350937    13Ag    -0.347033
       1Au    -0.324490    15Bu    -0.311091    14Ag    -0.292997
      15Ag    -0.287511     1Bg    -0.263477     2Au    -0.212368
       2Bg    -0.195185     3Bg    -0.153017

  @DF-RKS Final Energy:  -382.31415035933139

   => Energetics <=

    Nuclear Repulsion Energy =            445.9369781142434022
    One-Electron Energy =               -1400.6447410872065120
    Two-Electron Energy =                 619.1777457523099883
    DFT Exchange-Correlation Energy =     -46.7841331386783281
    Empirical Dispersion Energy =           0.0000000000000000
    PCM Polarization Energy =               0.0000000000000000
    EFP Energy =                            0.0000000000000000
    Total Energy =                       -382.3141503593314496
 Dipole X            :          0.0000000            0.0000000            0.0000000
 Dipole Y            :          0.0000000            0.0000000            0.0000000
 Dipole Z            :          0.0000000            0.0000000            0.0000000

  Lowdin Charges: (a.u.)
   Center  Symbol    Alpha    Beta     Spin     Total
       1     C     2.99812  2.99812  0.00000  0.00376
       2     C     2.99812  2.99812  0.00000  0.00376
       3     C     3.02198  3.02198  0.00000 -0.04395
       4     C     3.02198  3.02198  0.00000 -0.04395
       5     C     3.02210  3.02210  0.00000 -0.04421
       6     C     3.02210  3.02210  0.00000 -0.04421
       7     H     0.47889  0.47889  0.00000  0.04222
       8     H     0.47889  0.47889  0.00000  0.04222
       9     H     0.47812  0.47812  0.00000  0.04375
      10     H     0.47812  0.47812  0.00000  0.04375
      11     C     3.01950  3.01950  0.00000 -0.03901
      12     C     3.01950  3.01950  0.00000 -0.03901
      13     H     0.47948  0.47948  0.00000  0.04104
      14     H     0.47948  0.47948  0.00000  0.04104
      15     C     3.04585  3.04585  0.00000 -0.09170
      16     C     3.04585  3.04585  0.00000 -0.09170
      17     H     0.47848  0.47848  0.00000  0.04304
      18     H     0.47848  0.47848  0.00000  0.04304
      19     H     0.47748  0.47748  0.00000  0.04505
      20     H     0.47748  0.47748  0.00000  0.04505

  Total alpha = 35.00000, Total beta = 35.00000, Total charge =  0.00000

*** Psi4 exiting successfully. Buy a developer a beer!
