                              Psi4 1.0.54 Driver

  ==> Input File <==

--------------------------------------------------------------------------
molecule dvb {
    1 2
    C    -1.4152533224   0.2302217854   0.0000000000
    C     1.4152533224  -0.2302217854   0.0000000000
    C    -0.4951331558   1.3144608674   0.0000000000
    C     0.4951331558  -1.3144608674   0.0000000000
    C     0.8894090436   1.0909493743   0.0000000000
    C    -0.8894090436  -1.0909493743   0.0000000000
    H    -0.8795511985   2.3437343748   0.0000000000
    H     0.8795511985  -2.3437343748   0.0000000000
    H     1.5779041557   1.9450061275   0.0000000000
    H    -1.5779041557  -1.9450061275   0.0000000000
    C     2.8845844962  -0.5210893778   0.0000000000
    C    -2.8845844962   0.5210893778   0.0000000000
    H     3.1403356810  -1.5919605685   0.0000000000
    H    -3.1403356810   1.5919605685   0.0000000000
    C     3.8800428103   0.3822535424   0.0000000000
    C    -3.8800428103  -0.3822535424   0.0000000000
    H     3.6946765858   1.4624389570   0.0000000000
    H    -3.6946765858  -1.4624389570   0.0000000000
    H     4.9316453546   0.0711049543   0.0000000000
    H    -4.9316453546  -0.0711049543   0.0000000000
}

set {
    basis sto-3g
    reference uhf
    print_basis true
    print_mos true
}

scf_e, scf_wfn = energy('scf', return_wfn=True)
oeprop(scf_wfn, 'MULLIKEN_CHARGES', 'LOWDIN_CHARGES', 'MULTIPOLE(5)')
--------------------------------------------------------------------------

    Molecular point group: c2h

    Geometry (in Angstrom), charge = 1, multiplicity = 2:

       Center              X                  Y                   Z               Mass
    ------------   -----------------  -----------------  -----------------  -----------------
           C         -1.415253322400     0.230221785400     0.000000000000    12.000000000000
           C          1.415253322400    -0.230221785400     0.000000000000    12.000000000000
           C         -0.495133155800     1.314460867400     0.000000000000    12.000000000000
           C          0.495133155800    -1.314460867400     0.000000000000    12.000000000000
           C          0.889409043600     1.090949374300     0.000000000000    12.000000000000
           C         -0.889409043600    -1.090949374300     0.000000000000    12.000000000000
           H         -0.879551198500     2.343734374800     0.000000000000     1.007825032070
           H          0.879551198500    -2.343734374800     0.000000000000     1.007825032070
           H          1.577904155700     1.945006127500     0.000000000000     1.007825032070
           H         -1.577904155700    -1.945006127500     0.000000000000     1.007825032070
           C          2.884584496200    -0.521089377800     0.000000000000    12.000000000000
           C         -2.884584496200     0.521089377800     0.000000000000    12.000000000000
           H          3.140335681000    -1.591960568500     0.000000000000     1.007825032070
           H         -3.140335681000     1.591960568500     0.000000000000     1.007825032070
           C          3.880042810300     0.382253542400     0.000000000000    12.000000000000
           C         -3.880042810300    -0.382253542400     0.000000000000    12.000000000000
           H          3.694676585800     1.462438957000     0.000000000000     1.007825032070
           H         -3.694676585800    -1.462438957000     0.000000000000     1.007825032070
           H          4.931645354600     0.071104954300     0.000000000000     1.007825032070
           H         -4.931645354600    -0.071104954300     0.000000000000     1.007825032070

  Charge       = 1
  Multiplicity = 2
  Basis Set: STO-3G
  Basis Set:

    Orbital Energies (a.u.)
    -----------------------

    Alpha Occupied:

       1Bu   -11.308252     1Ag   -11.308188     2Bu   -11.265244
       2Ag   -11.265163     3Bu   -11.260184     3Ag   -11.260108
       4Bu   -11.221309     4Ag   -11.221308     5Bu   -11.216968
       5Ag   -11.216968     6Ag    -1.326090     6Bu    -1.237216
       7Ag    -1.170184     7Bu    -1.166025     8Bu    -1.131144
       8Ag    -1.011042     9Ag    -0.981969     9Bu    -0.911666
      10Ag    -0.900317    11Ag    -0.820634    10Bu    -0.806983
      11Bu    -0.778416    12Bu    -0.759918    12Ag    -0.735539
      13Bu    -0.735154    14Bu    -0.697082     1Au    -0.694758
      13Ag    -0.679945    14Ag    -0.636807    15Bu    -0.632295
      15Ag    -0.616380     1Bg    -0.596585     2Au    -0.531855
       2Bg    -0.491525     3Bg    -0.479044

    Alpha Virtual:

       3Au    -0.047702     4Au     0.062182     4Bg     0.131957
       5Au     0.208959     5Bg     0.297092    16Ag     0.369866
      16Bu     0.380864    17Bu     0.420276    17Ag     0.436308
      18Ag     0.453088    18Bu     0.454897    19Ag     0.483674
      19Bu     0.492640    20Bu     0.516780    20Ag     0.544371
      21Ag     0.584381    21Bu     0.610161    22Ag     0.649326
      22Bu     0.673891    23Bu     0.723590    23Ag     0.738269
      24Ag     0.787954    24Bu     0.821125    25Ag     0.884295
      25Bu     0.891531

    Beta Occupied:

       1Bu   -11.296463     1Ag   -11.296423     2Bu   -11.265748
       2Ag   -11.265676     3Bu   -11.262159     3Ag   -11.262097
       4Ag   -11.237451     4Bu   -11.237451     5Ag   -11.197242
       5Bu   -11.197242     6Ag    -1.308273     6Bu    -1.222397
       7Bu    -1.169686     7Ag    -1.165524     8Bu    -1.089853
       8Ag    -0.994158     9Ag    -0.966864     9Bu    -0.908126
      10Ag    -0.893215    11Ag    -0.819810    10Bu    -0.803812
      11Bu    -0.771318    12Bu    -0.753831    13Bu    -0.735357
      12Ag    -0.731578    14Bu    -0.691269    13Ag    -0.677156
       1Au    -0.644422    14Ag    -0.632366    15Bu    -0.628287
      15Ag    -0.614922     1Bg    -0.561327     2Bg    -0.502064
       2Au    -0.489157

    Beta Virtual:

       3Bg    -0.148765     3Au     0.074535     4Au     0.085267
       4Bg     0.176105     5Au     0.238967     5Bg     0.328746
      16Ag     0.367430    16Bu     0.382438    17Bu     0.413803
      17Ag     0.437282    18Bu     0.465677    18Ag     0.465871
      19Bu     0.489616    19Ag     0.494401    20Bu     0.539358
      20Ag     0.563187    21Ag     0.586542    21Bu     0.618822
      22Ag     0.649222    22Bu     0.675453    23Bu     0.730195
      23Ag     0.740157    24Ag     0.791616    24Bu     0.825653
      25Ag     0.889409    25Bu     0.896492

    Final Occupation by Irrep:
             Ag    Bg    Au    Bu
    DOCC [    15,    2,    2,   15 ]
    SOCC [     0,    1,    0,    0 ]

  Energy converged.

  @DF-UHF Final Energy:  -379.60157135288284

   => Energetics <=

    Nuclear Repulsion Energy =            445.9369781142434022
    One-Electron Energy =               -1385.7121018530619949
    Two-Electron Energy =                 560.1735523859357500
    DFT Exchange-Correlation Energy =       0.0000000000000000
    Empirical Dispersion Energy =           0.0000000000000000
    PCM Polarization Energy =               0.0000000000000000
    EFP Energy =                            0.0000000000000000
    Total Energy =                       -379.6015713528828428

  Saving occupied orbitals to File 180.

  UHF NO Occupations:
  HONO-2 :    2 Bg 1.8968280
  HONO-1 :    2 Au 1.8076262
  HONO-0 :    3 Bg 1.0000000
  LUNO+0 :    3 Au 0.1923738
  LUNO+1 :    4 Bg 0.1031720
  LUNO+2 :    4 Au 0.0216818
  LUNO+3 :   16 Ag 0.0019240

  ==> Alpha-Spin Molecular Orbitals <==

                 1            2            3            4            5

    1    0.7015019    0.7015381    0.0010813    0.0003989    0.0010377
    2    0.0256532    0.0255321    0.0049179    0.0047810    0.0051999
    3    0.0000000    0.0000000    0.0000000    0.0000000    0.0000000
    4    0.0009245    0.0006957    0.0011656    0.0012597    0.0021165
    5   -0.0000586   -0.0000173   -0.0029286   -0.0029038    0.0022051
    6   -0.7015019    0.7015381   -0.0010813    0.0003989   -0.0010377
    7   -0.0256532    0.0255321   -0.0049179    0.0047810   -0.0051999
    8    0.0000000    0.0000000    0.0000000    0.0000000    0.0000000
    9    0.0009245   -0.0006957    0.0011656   -0.0012597    0.0021165
   10   -0.0000586    0.0000173   -0.0029286    0.0029038    0.0022051
   11    0.0015889    0.0009534    0.0223498   -0.0122553   -0.7012832
   12   -0.0050646   -0.0047797   -0.0042860    0.0043456   -0.0253543
   13    0.0000000    0.0000000    0.0000000    0.0000000    0.0000000
   14    0.0020036    0.0020641   -0.0030022    0.0031314   -0.0004516
   15    0.0025038    0.0025103    0.0005444   -0.0006042    0.0010303
   16   -0.0015889    0.0009534   -0.0223498   -0.0122553    0.7012832
   17    0.0050646   -0.0047797    0.0042860    0.0043456    0.0253543
   18    0.0000000    0.0000000    0.0000000    0.0000000    0.0000000
   19    0.0020036   -0.0020641   -0.0030022   -0.0031314   -0.0004516
   20    0.0025038   -0.0025103    0.0005444    0.0006042    0.0010303
   21   -0.0017033    0.0010377    0.7012840   -0.7015734    0.0218230
   22    0.0050322   -0.0047305    0.0251165   -0.0250565    0.0058705
   23    0.0000000    0.0000000    0.0000000    0.0000000    0.0000000
   24    0.0010993   -0.0011673   -0.0005372    0.0004048   -0.0030584
   25   -0.0029927    0.0030045   -0.0008611    0.0006105    0.0003727
   26    0.0017033    0.0010377   -0.7012840   -0.7015734   -0.0218230
   27   -0.0050322   -0.0047305   -0.0251165   -0.0250565   -0.0058705
   28    0.0000000    0.0000000    0.0000000    0.0000000    0.0000000
   29    0.0010993    0.0011673   -0.0005372   -0.0004048   -0.0030584
   30   -0.0029927   -0.0030045   -0.0008611   -0.0006105    0.0003727
   31    0.0000900   -0.0000087   -0.0000233    0.0000877    0.0045704
   32   -0.0000900   -0.0000087    0.0000233    0.0000877   -0.0045704
   33   -0.0000827   -0.0000138   -0.0046029    0.0046951   -0.0002658
   34    0.0000827   -0.0000138    0.0046029    0.0046951    0.0002658
   35    0.0005915   -0.0006210   -0.0001277    0.0002663   -0.0002389
   36    0.0041863   -0.0042419    0.0001747   -0.0000864    0.0001930
   37    0.0000000    0.0000000    0.0000000    0.0000000    0.0000000
   38   -0.0028853    0.0029256   -0.0000794   -0.0000091   -0.0000354
   39    0.0006132   -0.0006208    0.0000038   -0.0000317    0.0000665
   40   -0.0005915   -0.0006210    0.0001277    0.0002663    0.0002389
   41   -0.0041863   -0.0042419   -0.0001747   -0.0000864   -0.0001930
   42    0.0000000    0.0000000    0.0000000    0.0000000    0.0000000
   43   -0.0028853   -0.0029256   -0.0000794    0.0000091   -0.0000354
   44    0.0006132    0.0006208    0.0000038    0.0000317    0.0000665
   45   -0.0000300    0.0000349   -0.0000313    0.0000522   -0.0000566
   46    0.0000300    0.0000349    0.0000313    0.0000522    0.0000566
   47    0.0001017   -0.0000959   -0.0002372    0.0002516   -0.0000712
   48   -0.0001337    0.0001334   -0.0000581    0.0000737   -0.0000619
   49    0.0000000    0.0000000    0.0000000    0.0000000    0.0000000
   50    0.0000690   -0.0000720    0.0000585   -0.0000656    0.0000396
   51   -0.0000592    0.0000599   -0.0000427    0.0000347    0.0000081
   52   -0.0001017   -0.0000959    0.0002372    0.0002516    0.0000712
   53    0.0001337    0.0001334    0.0000581    0.0000737    0.0000619
   54    0.0000000    0.0000000    0.0000000    0.0000000    0.0000000
   55    0.0000690    0.0000720    0.0000585    0.0000656    0.0000396
   56   -0.0000592   -0.0000599   -0.0000427   -0.0000347    0.0000081
   57    0.0001040   -0.0000990    0.0001055   -0.0001078    0.0000154
   58   -0.0001040   -0.0000990   -0.0001055   -0.0001078   -0.0000154
   59    0.0000222   -0.0000216   -0.0000187    0.0000173   -0.0000015
   60   -0.0000222   -0.0000216    0.0000187    0.0000173    0.0000015

 Ene   -11.3082518  -11.3081881  -11.2652443  -11.2651626  -11.2601838
 Sym            Bu           Ag           Bu           Ag           Bu
 Occ             1            1            1            1            1

                 6            7            8            9           10

    1    0.0003023    0.0012750    0.0013119    0.0000170   -0.0000087
    2    0.0045929   -0.0040306   -0.0040202    0.0004697   -0.0004697
    3    0.0000000    0.0000000    0.0000000    0.0000000    0.0000000
    4    0.0020819    0.0028471    0.0028277   -0.0002586    0.0002552
    5    0.0024268   -0.0004309   -0.0004268    0.0000640   -0.0000633
    6    0.0003023   -0.0012750    0.0013119   -0.0000170   -0.0000087
    7    0.0045929    0.0040306   -0.0040202   -0.0004697   -0.0004697
    8    0.0000000    0.0000000    0.0000000    0.0000000    0.0000000
    9   -0.0020819    0.0028471   -0.0028277   -0.0002586   -0.0002552
   10   -0.0024268   -0.0004309    0.0004268    0.0000640    0.0000633
   11   -0.7015801    0.0002554    0.0004316    0.0000516   -0.0000975
   12   -0.0251313    0.0001482    0.0000642   -0.0000304    0.0000793
   13    0.0000000    0.0000000    0.0000000    0.0000000    0.0000000
   14   -0.0003174    0.0000188   -0.0000346    0.0000603   -0.0000220
   15    0.0007262   -0.0000297    0.0000331    0.0000126   -0.0000169
   16   -0.7015801   -0.0002554    0.0004316   -0.0000516   -0.0000975
   17   -0.0251313   -0.0001482    0.0000642    0.0000304    0.0000793
   18    0.0000000    0.0000000    0.0000000    0.0000000    0.0000000
   19    0.0003174    0.0000188    0.0000346    0.0000603    0.0000220
   20   -0.0007262   -0.0000297   -0.0000331    0.0000126    0.0000169
   21    0.0116455   -0.0001605    0.0003030   -0.0002488   -0.0002503
   22    0.0051907   -0.0001963    0.0001204    0.0000400    0.0000438
   23    0.0000000    0.0000000    0.0000000    0.0000000    0.0000000
   24   -0.0031742    0.0000107    0.0000541    0.0000926    0.0000902
   25    0.0003908    0.0000209    0.0000184   -0.0000088   -0.0000026
   26    0.0116455    0.0001605    0.0003030    0.0002488   -0.0002503
   27    0.0051907    0.0001963    0.0001204   -0.0000400    0.0000438
   28    0.0000000    0.0000000    0.0000000    0.0000000    0.0000000
   29    0.0031742    0.0000107   -0.0000541    0.0000926   -0.0000902
   30   -0.0003908    0.0000209   -0.0000184   -0.0000088    0.0000026
   31    0.0046565   -0.0000247   -0.0000356   -0.0000018    0.0000022
   32    0.0046565    0.0000247   -0.0000356    0.0000018    0.0000022
   33   -0.0000711    0.0001083   -0.0001214   -0.0000668   -0.0000687
   34   -0.0000711   -0.0001083   -0.0001214    0.0000668   -0.0000687
   35    0.0003840   -0.6999347    0.6999347    0.0516507    0.0516572
   36   -0.0000862   -0.0238392    0.0238317    0.0075276    0.0075271
   37    0.0000000    0.0000000    0.0000000    0.0000000    0.0000000
   38   -0.0000282   -0.0003511    0.0003571    0.0025719    0.0025722
   39   -0.0000133   -0.0005267    0.0005256    0.0023839    0.0023835
   40    0.0003840    0.6999347    0.6999347   -0.0516507    0.0516572
   41   -0.0000862    0.0238392    0.0238317   -0.0075276    0.0075271
   42    0.0000000    0.0000000    0.0000000    0.0000000    0.0000000
   43    0.0000282   -0.0003511   -0.0003571    0.0025719   -0.0025722
   44    0.0000133   -0.0005267   -0.0005256    0.0023839   -0.0023835
   45    0.0000619    0.0045191   -0.0045193   -0.0003947   -0.0003945
   46    0.0000619   -0.0045191   -0.0045193    0.0003947   -0.0003945
   47    0.0001116   -0.0520777    0.0520841   -0.6995078   -0.6995073
   48    0.0000534    0.0032635   -0.0032634   -0.0265549   -0.0265547
   49    0.0000000    0.0000000    0.0000000    0.0000000    0.0000000
   50   -0.0000521   -0.0022441    0.0022441    0.0011549    0.0011548
   51   -0.0000050   -0.0019612    0.0019616    0.0010105    0.0010105
   52    0.0001116    0.0520777    0.0520841    0.6995078   -0.6995073
   53    0.0000534   -0.0032635   -0.0032634    0.0265549   -0.0265547
   54    0.0000000    0.0000000    0.0000000    0.0000000    0.0000000
   55    0.0000521   -0.0022441   -0.0022441    0.0011549   -0.0011548
   56    0.0000050   -0.0019612   -0.0019616    0.0010105   -0.0010105
   57    0.0000135    0.0002944   -0.0002945    0.0048939    0.0048940
   58    0.0000135   -0.0002944   -0.0002945   -0.0048939    0.0048940
   59    0.0000073    0.0002854   -0.0002855    0.0048727    0.0048727
   60    0.0000073   -0.0002854   -0.0002855   -0.0048727    0.0048727

 Ene   -11.2601077  -11.2213090  -11.2213085  -11.2169682  -11.2169681
 Sym            Ag           Bu           Ag           Bu           Ag
 Occ             1            1            1            1            1

                11           12           13           14           15

    1    0.1147366    0.1292594    0.0122226    0.0129611    0.0758973
    2   -0.3078884   -0.3627373   -0.0395815   -0.0375572   -0.2187521
    3    0.0000000    0.0000000    0.0000000    0.0000000    0.0000000
    4   -0.0536429    0.0081171    0.0983489   -0.0270265   -0.0762411
    5    0.0091070    0.0032557   -0.0073577   -0.1400420    0.0231658
    6    0.1147366   -0.1292594    0.0122226   -0.0129611   -0.0758973
    7   -0.3078884    0.3627373   -0.0395815    0.0375572    0.2187521
    8    0.0000000    0.0000000    0.0000000    0.0000000    0.0000000
    9    0.0536429    0.0081171   -0.0983489   -0.0270265   -0.0762411
   10   -0.0091070    0.0032557    0.0073577   -0.1400420    0.0231658
   11    0.0947283    0.0476077   -0.0376571    0.1308415    0.0285825
   12   -0.2369094   -0.1233530    0.1003153   -0.3559802   -0.0776222
   13    0.0000000    0.0000000    0.0000000    0.0000000    0.0000000
   14   -0.0122503    0.0726349    0.0337470   -0.0568596    0.0717153
   15    0.0612709    0.0421707   -0.0151303    0.0150980    0.0356125
   16    0.0947283   -0.0476077   -0.0376571   -0.1308415   -0.0285825
   17   -0.2369094    0.1233530    0.1003153    0.3559802    0.0776222
   18    0.0000000    0.0000000    0.0000000    0.0000000    0.0000000
   19    0.0122503    0.0726349   -0.0337470   -0.0568596    0.0717153
   20   -0.0612709    0.0421707    0.0151303    0.0150980    0.0356125
   21    0.0961642   -0.0559472   -0.0320069    0.1204695   -0.0593780
   22   -0.2425607    0.1466013    0.0851559   -0.3305289    0.1634263
   23    0.0000000    0.0000000    0.0000000    0.0000000    0.0000000
   24    0.0303420    0.0540327   -0.0457091    0.0707733    0.0309048
   25    0.0550667   -0.0635633   -0.0011084   -0.0191154   -0.0504641
   26    0.0961642    0.0559472   -0.0320069   -0.1204695    0.0593780
   27   -0.2425607   -0.1466013    0.0851559    0.3305289   -0.1634263
   28    0.0000000    0.0000000    0.0000000    0.0000000    0.0000000
   29   -0.0303420    0.0540327    0.0457091    0.0707733    0.0309048
   30   -0.0550667   -0.0635633    0.0011084   -0.0191154   -0.0504641
   31   -0.0362899   -0.0274250    0.0175713   -0.0858617   -0.0186630
   32   -0.0362899    0.0274250    0.0175713    0.0858617    0.0186630
   33   -0.0374667    0.0332150    0.0106970   -0.0805851    0.0370436
   34   -0.0374667   -0.0332150    0.0106970    0.0805851   -0.0370436
   35    0.0360650   -0.0867485    0.1110719    0.0011784    0.0723826
   36   -0.0861006    0.2132214   -0.2790454   -0.0024189   -0.1832950
   37    0.0000000    0.0000000    0.0000000    0.0000000    0.0000000
   38    0.0288947   -0.0263832   -0.0543984   -0.0159175   -0.1097964
   39   -0.0118082    0.0336761   -0.0594746   -0.0181537   -0.0540794
   40    0.0360650    0.0867485    0.1110719   -0.0011784   -0.0723826
   41   -0.0861006   -0.2132214   -0.2790454    0.0024189    0.1832950
   42    0.0000000    0.0000000    0.0000000    0.0000000    0.0000000
   43   -0.0288947   -0.0263832    0.0543984   -0.0159175   -0.1097964
   44    0.0118082    0.0336761    0.0594746   -0.0181537   -0.0540794
   45   -0.0158725    0.0451323   -0.0653677    0.0065904   -0.0459916
   46   -0.0158725   -0.0451323   -0.0653677   -0.0065904    0.0459916
   47    0.0169416   -0.0618406    0.1285222    0.0139757    0.1288600
   48   -0.0459455    0.1704753   -0.3608692   -0.0388092   -0.3666694
   49    0.0000000    0.0000000    0.0000000    0.0000000    0.0000000
   50    0.0152661   -0.0431927    0.0627325    0.0072709    0.0429923
   51    0.0089714   -0.0286253    0.0504118    0.0004990    0.0434927
   52    0.0169416    0.0618406    0.1285222   -0.0139757   -0.1288600
   53   -0.0459455   -0.1704753   -0.3608692    0.0388092    0.3666694
   54    0.0000000    0.0000000    0.0000000    0.0000000    0.0000000
   55   -0.0152661   -0.0431927   -0.0627325    0.0072709    0.0429923
   56   -0.0089714   -0.0286253   -0.0504118    0.0004990    0.0434927
   57   -0.0076252    0.0314649   -0.0722802   -0.0105351   -0.0774241
   58   -0.0076252   -0.0314649   -0.0722802    0.0105351    0.0774241
   59   -0.0052312    0.0256665   -0.0676298   -0.0067553   -0.0784919
   60   -0.0052312   -0.0256665   -0.0676298    0.0067553    0.0784919

 Ene    -1.3260900   -1.2372162   -1.1701842   -1.1660247   -1.1311438
 Sym            Ag           Bu           Ag           Bu           Bu
 Occ             1            1            1            1            1

                16           17           18           19           20

    1    0.0812339    0.0524303    0.0010590    0.0362914    0.0331548
    2   -0.2531333   -0.1647900    0.0020727   -0.1122015   -0.1154290
    3    0.0000000    0.0000000    0.0000000    0.0000000    0.0000000
    4    0.0774845    0.0727289   -0.1902783   -0.1920300    0.1008852
    5   -0.1369223    0.2112777    0.0708126    0.0029751   -0.0452562
    6    0.0812339    0.0524303   -0.0010590    0.0362914    0.0331548
    7   -0.2531333   -0.1647900   -0.0020727   -0.1122015   -0.1154290
    8    0.0000000    0.0000000    0.0000000    0.0000000    0.0000000
    9   -0.0774845   -0.0727289   -0.1902783    0.1920300   -0.1008852
   10    0.1369223   -0.2112777    0.0708126   -0.0029751    0.0452562
   11   -0.0023292   -0.1131776    0.0486190   -0.0154099    0.0127804
   12    0.0064581    0.3368653   -0.1509726    0.0550887   -0.0494019
   13    0.0000000    0.0000000    0.0000000    0.0000000    0.0000000
   14    0.1825752   -0.0346814   -0.0026736    0.0566804    0.1499259
   15    0.0397852    0.0555021    0.0100981    0.1919052   -0.1198821
   16   -0.0023292   -0.1131776   -0.0486190   -0.0154099    0.0127804
   17    0.0064581    0.3368653    0.1509726    0.0550887   -0.0494019
   18    0.0000000    0.0000000    0.0000000    0.0000000    0.0000000
   19   -0.1825752    0.0346814   -0.0026736   -0.0566804   -0.1499259
   20   -0.0397852   -0.0555021    0.0100981   -0.1919052    0.1198821
   21   -0.0916822    0.0546136   -0.0310620   -0.0449499   -0.0155104
   22    0.2689574   -0.1630765    0.0963444    0.1489868    0.0444512
   23    0.0000000    0.0000000    0.0000000    0.0000000    0.0000000
   24   -0.0395324   -0.1800947    0.0823983    0.0467218   -0.1456443
   25    0.0679498    0.0917764   -0.0433832    0.2001517   -0.0741737
   26   -0.0916822    0.0546136    0.0310620   -0.0449499   -0.0155104
   27    0.2689574   -0.1630765   -0.0963444    0.1489868    0.0444512
   28    0.0000000    0.0000000    0.0000000    0.0000000    0.0000000
   29    0.0395324    0.1800947    0.0823983   -0.0467218    0.1456443
   30   -0.0679498   -0.0917764   -0.0433832   -0.2001517    0.0741737
   31   -0.0111516    0.1501710   -0.0462543    0.1155658   -0.1230900
   32   -0.0111516    0.1501710    0.0462543    0.1155658   -0.1230900
   33    0.1070689   -0.0765872    0.0514479    0.1611902   -0.0879233
   34    0.1070689   -0.0765872   -0.0514479    0.1611902   -0.0879233
   35    0.0435787    0.0042414    0.1010672   -0.0610693   -0.0588952
   36   -0.1255585   -0.0134717   -0.3024861    0.1824395    0.1848742
   37    0.0000000    0.0000000    0.0000000    0.0000000    0.0000000
   38    0.1250889    0.0721473    0.0682737   -0.0412449    0.1586338
   39    0.0601024   -0.0301573    0.1000417   -0.0570734   -0.1116641
   40    0.0435787    0.0042414   -0.1010672   -0.0610693   -0.0588952
   41   -0.1255585   -0.0134717    0.3024861    0.1824395    0.1848742
   42    0.0000000    0.0000000    0.0000000    0.0000000    0.0000000
   43   -0.1250889   -0.0721473    0.0682737    0.0412449   -0.1586338
   44   -0.0601024    0.0301573    0.1000417    0.0570734    0.1116641
   45   -0.0601754    0.0243508   -0.1674297    0.1046832    0.1780189
   46   -0.0601754    0.0243508    0.1674297    0.1046832    0.1780189
   47   -0.0713082   -0.0388621   -0.0770985    0.0537267    0.0272205
   48    0.2137286    0.1195509    0.2481836   -0.1741580   -0.1000966
   49    0.0000000    0.0000000    0.0000000    0.0000000    0.0000000
   50    0.0211114    0.0313869    0.0898389   -0.0740064   -0.0314434
   51    0.0192602   -0.0120886    0.1108480   -0.0602085   -0.2207262
   52   -0.0713082   -0.0388621    0.0770985    0.0537267    0.0272205
   53    0.2137286    0.1195509   -0.2481836   -0.1741580   -0.1000966
   54    0.0000000    0.0000000    0.0000000    0.0000000    0.0000000
   55   -0.0211114   -0.0313869    0.0898389    0.0740064    0.0314434
   56   -0.0192602    0.0120886    0.1108480    0.0602085    0.2207262
   57    0.0712072    0.0235428    0.1341279   -0.0782842   -0.1734292
   58    0.0712072    0.0235428   -0.1341279   -0.0782842   -0.1734292
   59    0.0667287    0.0496500    0.1065340   -0.0836783   -0.0156554
   60    0.0667287    0.0496500   -0.1065340   -0.0836783   -0.0156554

 Ene    -1.0110422   -0.9819689   -0.9116664   -0.9003172   -0.8206345
 Sym            Ag           Ag           Bu           Ag           Ag
 Occ             1            1            1            1            1

                21           22           23           24           25

    1    0.0224475    0.0642973    0.0037665    0.0149430    0.0008412
    2   -0.0820741   -0.2289258   -0.0104670   -0.0506504   -0.0019579
    3    0.0000000    0.0000000    0.0000000    0.0000000    0.0000000
    4    0.1403125   -0.0587139   -0.1759095   -0.0281552   -0.1211147
    5    0.2201557   -0.0891572    0.2186928   -0.0198121   -0.0473729
    6   -0.0224475   -0.0642973   -0.0037665    0.0149430   -0.0008412
    7    0.0820741    0.2289258    0.0104670   -0.0506504    0.0019579
    8    0.0000000    0.0000000    0.0000000    0.0000000    0.0000000
    9    0.1403125   -0.0587139   -0.1759095    0.0281552   -0.1211147
   10    0.2201557   -0.0891572    0.2186928    0.0198121   -0.0473729
   11   -0.0179556   -0.0509486    0.0020406   -0.0209829    0.0196928
   12    0.0618884    0.1779715   -0.0060522    0.0718513   -0.0591565
   13    0.0000000    0.0000000    0.0000000    0.0000000    0.0000000
   14   -0.2496851    0.0464378   -0.0604670    0.0868887   -0.1644774
   15   -0.0178881    0.2377556   -0.0676814    0.0051975    0.3046339
   16    0.0179556    0.0509486   -0.0020406   -0.0209829   -0.0196928
   17   -0.0618884   -0.1779715    0.0060522    0.0718513    0.0591565
   18    0.0000000    0.0000000    0.0000000    0.0000000    0.0000000
   19   -0.2496851    0.0464378   -0.0604670   -0.0868887   -0.1644774
   20   -0.0178881    0.2377556   -0.0676814   -0.0051975    0.3046339
   21    0.0362545    0.0472825   -0.0170473    0.0165315    0.0104244
   22   -0.1206544   -0.1673623    0.0529247   -0.0622122   -0.0312602
   23    0.0000000    0.0000000    0.0000000    0.0000000    0.0000000
   24    0.1602382   -0.1921413   -0.0050258   -0.1378037    0.2310536
   25   -0.1525601   -0.1371376   -0.2585371   -0.0407092    0.1468841
   26   -0.0362545   -0.0472825    0.0170473    0.0165315   -0.0104244
   27    0.1206544    0.1673623   -0.0529247   -0.0622122    0.0312602
   28    0.0000000    0.0000000    0.0000000    0.0000000    0.0000000
   29    0.1602382   -0.1921413   -0.0050258    0.1378037    0.2310536
   30   -0.1525601   -0.1371376   -0.2585371    0.0407092    0.1468841
   31    0.0784676    0.2320181   -0.0388924    0.0084243    0.2420970
   32   -0.0784676   -0.2320181    0.0388924    0.0084243   -0.2420970
   33   -0.0616789   -0.2401358   -0.1442072   -0.1125037    0.1868577
   34    0.0616789    0.2401358    0.1442072   -0.1125037   -0.1868577

 Dipole X            :          0.0000000            0.0000000            0.0000000
 Dipole Y            :          0.0000000            0.0000000            0.0000000
 Dipole Z            :          0.0000000            0.0000000            0.0000000

  Lowdin Charges: (a.u.)
   Center  Symbol    Alpha    Beta     Spin     Total
       1     C     3.15968  2.71693  0.44275  0.12339
       2     C     3.15968  2.71693  0.44275  0.12339
       3     C     2.96243  3.02142 -0.05899  0.01615
       4     C     2.96243  3.02142 -0.05899  0.01615
       5     C     2.98686  2.99076 -0.00391  0.02238
       6     C     2.98686  2.99076 -0.00391  0.02238
       7     H     0.46436  0.46114  0.00322  0.07450
       8     H     0.46436  0.46114  0.00322  0.07450
       9     H     0.46288  0.46276  0.00011  0.07436
      10     H     0.46288  0.46276  0.00011  0.07436
      11     C     2.70996  3.28783 -0.57786  0.00221
      12     C     2.70996  3.28783 -0.57786  0.00221
      13     H     0.48739  0.45251  0.03488  0.06010
      14     H     0.48739  0.45251  0.03488  0.06010
      15     C     3.37527  2.62570  0.74957 -0.00098
      16     C     3.37527  2.62570  0.74957 -0.00098
      17     H     0.45016  0.49435 -0.04418  0.05549
      18     H     0.45016  0.49435 -0.04418  0.05549
      19     H     0.44101  0.48659 -0.04559  0.07240
      20     H     0.44101  0.48659 -0.04559  0.07240

  Total alpha = 35.00000, Total beta = 34.00000, Total charge =  1.00000

*** Psi4 exiting successfully. Buy a developer a beer!
