                              Psi4 1.0.54 Driver

  ==> Input File <==

--------------------------------------------------------------------------
molecule water {
0 1
O
H 1 0.99
H 1 0.99 2 106.0
}

set {
    basis sto-3g
}

energy('mp2')
--------------------------------------------------------------------------

    Molecular point group: c2v

    Geometry (in Angstrom), charge = 0, multiplicity = 1:

       Center              X                  Y                   Z               Mass
    ------------   -----------------  -----------------  -----------------  -----------------
           O          0.000000000000     0.000000000000    -0.066678531529    15.994914619560
           H          0.000000000000    -0.790649154947     0.529118341392     1.007825032070
           H          0.000000000000     0.790649154947     0.529118341392     1.007825032070

  Charge       = 0
  Multiplicity = 1
  Basis Set: STO-3G
  Basis Set:

    Orbital Energies (a.u.)
    -----------------------

    Doubly Occupied:

       1A1   -20.244302     2A1    -1.250662     1B2    -0.603157
       3A1    -0.445462     1B1    -0.388196

  @DF-RHF Final Energy:   -74.96480519071420

   => Energetics <=

    Nuclear Repulsion Energy =              8.8870062258783467
    One-Electron Energy =                -121.8400650575953250
    Two-Electron Energy =                  37.9882536410027640
    DFT Exchange-Correlation Energy =       0.0000000000000000
    Empirical Dispersion Energy =           0.0000000000000000
    PCM Polarization Energy =               0.0000000000000000
    EFP Energy =                            0.0000000000000000
    Total Energy =                        -74.9648051907142019
  Basis Set:
	 Reference Energy          =     -74.9648051907142019 [Eh]
	 Singles Energy            =      -0.0000000000000000 [Eh]
	 Same-Spin Energy          =      -0.0021866802380160 [Eh]
	 Opposite-Spin Energy      =      -0.0358549851606233 [Eh]
	 Correlation Energy        =      -0.0380416653986393 [Eh]
	 Total Energy              =     -75.0028468561128392 [Eh]

	 ================> DF-SCS-MP2 Energies <==================
	-----------------------------------------------------------
	 SCS Same-Spin Scale       =       0.3333333333333333 [-]
	 SCS Opposite-Spin Scale   =       1.2000000000000000 [-]
	 SCS Same-Spin Energy      =      -0.0007288934126720 [Eh]
	 SCS Opposite-Spin Energy  =      -0.0430259821927479 [Eh]
	 SCS Correlation Energy    =      -0.0437548756054199 [Eh]
	 SCS Total Energy          =     -75.0085600663196175 [Eh]
	-----------------------------------------------------------

*** Psi4 exiting successfully. Buy a developer a beer!
