 Output coordinates in angstroms (scale by  1.889725989 to convert to a.u.)

  No.       Tag          Charge          X              Y              Z
 ---- ---------------- ---------- -------------- -------------- --------------
    1 C                    6.0000     0.27867948    -1.36683162     0.00000000
    2 C                    6.0000     1.32303041    -0.44173575     0.00000000
    3 C                    6.0000     1.04434506     0.92484978     0.00000000
    4 C                    6.0000    -0.27867948     1.36683162     0.00000000
    5 C                    6.0000    -1.32303041     0.44173575     0.00000000
    6 C                    6.0000    -1.04434506    -0.92484978     0.00000000
    7 H                    1.0000     2.36595443    -0.79037726     0.00000000
    8 H                    1.0000     1.86746094     1.65407997     0.00000000
    9 H                    1.0000    -2.36595443     0.79037726     0.00000000
   10 H                    1.0000    -1.86746094    -1.65407997     0.00000000
   11 C                    6.0000    -0.58659169     2.87589931     0.00000000
   12 C                    6.0000     0.36350188     3.80076420     0.00000000
   13 H                    1.0000    -1.65647768     3.12394312     0.00000000
   14 H                    1.0000     0.14429560     4.87693235     0.00000000
   15 H                    1.0000     1.43338788     3.55272039     0.00000000
   16 C                    6.0000     0.58659169    -2.87589931     0.00000000
   17 C                    6.0000    -0.36350188    -3.80076420     0.00000000
   18 H                    1.0000     1.65647768    -3.12394312     0.00000000
   19 H                    1.0000    -0.14429560    -4.87693235     0.00000000
   20 H                    1.0000    -1.43338788    -3.55272039     0.00000000

         Total DFT energy =     -382.300234496971
         Total DFT energy =     -382.299603734814
         Total DFT energy =     -382.296794147699
         Total DFT energy =     -382.293569296949
         Total DFT energy =     -382.291677449477
         Total DFT energy =     -382.291904099003
         Total DFT energy =     -382.293705888167
         Total DFT energy =     -382.295616066320
         Total DFT energy =     -382.296073200097
         Total DFT energy =     -382.294203692049
         Total DFT energy =     -382.290337583929
         Total DFT energy =     -382.286088218183
         Total DFT energy =     -382.283659499678
         Total DFT energy =     -382.284393093428
         Total DFT energy =     -382.287631452883
         Total DFT energy =     -382.291163628204
         Total DFT energy =     -382.292888890640
         Total DFT energy =     -382.292130556561
         Total DFT energy =     -382.289799972023
         Total DFT energy =     -382.287668642998
         Total DFT energy =     -382.287270380763
         Total DFT energy =     -382.289006068233
         Total DFT energy =     -382.291974492159
         Total DFT energy =     -382.294558725944
         Total DFT energy =     -382.295295368509
         Total DFT energy =     -382.293593352650
         Total DFT energy =     -382.290124877890
         Total DFT energy =     -382.286692924823
         Total DFT energy =     -382.285318449067
         Total DFT energy =     -382.286803767160
         Total DFT energy =     -382.289951003063
         Total DFT energy =     -382.292422958450
         Total DFT energy =     -382.292511876361
         Total DFT energy =     -382.290206571953
         Total DFT energy =     -382.286953478639
         Total DFT energy =     -382.284591471467
 Total times  cpu:      519.7s     wall:      521.3s
