 Gaussian 16, Revision A.03,
 Gaussian 16:  ES64L-G16RevA.03 25-Dec-2016

 ------------------------------------------------------------------
 #p b3lyp/sto-3g guess=read geom=allcheck td(nstates=5) iop(9/40=2)
 ------------------------------------------------------------------

 Structure from the checkpoint file:  "PhCCCC.chk"
 -------------------
 Title Card Required
 -------------------
 Charge =  0 Multiplicity = 1

                         Standard orientation:
 ---------------------------------------------------------------------
 Center     Atomic      Atomic             Coordinates (Angstroms)
 Number     Number       Type             X           Y           Z
 ---------------------------------------------------------------------
      1          6           0        0.269445    1.410118    0.000000
      2          6           0       -1.064785    0.920662   -0.000000
      3          6           0       -1.325389   -0.457058   -0.000000
      4          6           0       -0.269445   -1.410118    0.000000
      5          6           0        1.064785   -0.920662    0.000000
      6          1           0       -1.904470    1.627522   -0.000000
      7          1           0       -2.364759   -0.813041   -0.000000
      8          1           0        1.904470   -1.627522    0.000000
      9          6           0       -0.603688   -2.869960   -0.000000
     10          6           0        0.269445   -3.892070   -0.000000
     11          1           0        1.355175   -3.742314   -0.000000
     12          1           0       -1.681859   -3.090152   -0.000000
     13          1           0       -0.074247   -4.933029   -0.000000
     14          6           0        0.603688    2.869960   -0.000000
     15          1           0        1.681859    3.090152   -0.000000
     16          6           0       -0.269445    3.892070   -0.000000
     17          1           0       -1.355175    3.742314   -0.000000
     18          1           0        0.074247    4.933029   -0.000000
     19          6           0        1.325389    0.457058   -0.000000
     20          1           0        2.364759    0.813041   -0.000000
 ---------------------------------------------------------------------

 SCF Done:  E(RB3LYP) =  -382.308266602     A.U. after    1 cycles

 Excitation energies and oscillator strengths:

 Excited State   1:      Singlet-BU     5.3351 eV  232.39 nm  f=0.1707  <S**2>=0.000
      32 -> 37        -0.04468
      32 -> 39        -0.01258
      33 -> 38         0.01876
      34 -> 36         0.48145
      34 -> 37         0.03735
      34 -> 39         0.02694
      35 -> 36        -0.31081
      35 -> 37         0.40999
      35 <- 36         0.03731
      35 <- 37         0.01303
 This state for optimization and/or second-order correction.
 Total Energy, E(TD-HF/TD-DFT) =  -382.112205281
 Copying the excited state density for this state as the 1-particle RhoCI density.

 Excited State   2:      Singlet-BU     5.3746 eV  230.68 nm  f=0.6779  <S**2>=0.000
      21 -> 44        -0.01025
      23 -> 45        -0.01117
      26 -> 50         0.01328
      26 -> 57        -0.01012
      28 -> 40         0.01887
      29 -> 51         0.01507
      30 -> 42        -0.01263
      30 -> 52        -0.01248
      31 -> 42         0.01378
      31 -> 43        -0.01070
      31 -> 52         0.01207
      31 -> 55        -0.01178
      32 -> 37        -0.02361
      32 -> 39         0.02886
      33 -> 38        -0.04013
      34 -> 36         0.26014
      34 -> 37        -0.05980
      35 -> 36         0.63204
      35 -> 37         0.17412
      28 <- 40         0.01189
      32 <- 39         0.01388
      33 <- 38        -0.02081
      34 <- 37        -0.01062
      35 <- 36        -0.07878

 Excited State   3:      Singlet-AG     6.2152 eV  199.49 nm  f=0.0000  <S**2>=0.000
      32 -> 38         0.02746
      32 -> 40         0.01177
      33 -> 36         0.56420
      33 -> 39         0.04628
      35 -> 38        -0.42276
      35 <- 38        -0.01377

 Excited State   4:      Singlet-BU     6.7732 eV  183.05 nm  f=0.1793  <S**2>=0.000
      17 -> 46        -0.01179
      19 -> 42         0.01412
      22 -> 53        -0.01025
      23 -> 48        -0.01458
      23 -> 51         0.01045
      25 -> 51         0.01919
      26 -> 48        -0.01824
      26 -> 50         0.01120
      26 -> 51         0.01238
      29 -> 53         0.01089
      30 -> 42        -0.01859
      30 -> 43         0.01211
      30 -> 49         0.01311
      30 -> 52        -0.01568
      30 -> 54         0.01374
      31 -> 46        -0.01085
      31 -> 47        -0.01283
      31 -> 54        -0.01343
      31 -> 55         0.01377
      31 -> 60        -0.01328
      32 -> 37         0.14582
      33 -> 38        -0.02316
      34 -> 36        -0.42637
      34 -> 37        -0.01765
      34 -> 39         0.11818
      35 -> 36         0.02943
      35 -> 37         0.53278
      25 <- 51         0.01042
      32 <- 37         0.02932
      34 <- 36         0.05519
      34 <- 39         0.02884
      35 <- 37        -0.05283

 Excited State   5:      Singlet-AG     7.4124 eV  167.27 nm  f=0.0000  <S**2>=0.000
      32 -> 38         0.04347
      33 -> 36        -0.15362
      33 -> 37         0.56083
      33 -> 39        -0.03018
      34 -> 38         0.34276
      34 -> 40         0.01763
      35 -> 38        -0.20320
      33 <- 36         0.02346
      35 <- 38         0.02279

 The electronic state is 1-AG.
 Alpha  occ. eigenvalues --  -10.02022 -10.02017 -10.00811 -10.00811 -10.00679
 Alpha  occ. eigenvalues --  -10.00678 -10.00605 -10.00591  -9.99233  -9.99233
 Alpha  occ. eigenvalues --   -0.80951  -0.75398  -0.71797  -0.69979  -0.66751
 Alpha  occ. eigenvalues --   -0.58869  -0.55892  -0.53166  -0.51018  -0.45745
 Alpha  occ. eigenvalues --   -0.43936  -0.41061  -0.39795  -0.39607  -0.37397
 Alpha  occ. eigenvalues --   -0.35115  -0.34729  -0.32451  -0.31125  -0.29279
 Alpha  occ. eigenvalues --   -0.28745  -0.26354  -0.21245  -0.19505  -0.15308
 Alpha virt. eigenvalues --    0.03742   0.09037   0.11061   0.18220   0.27253
 Alpha virt. eigenvalues --    0.33223   0.34074   0.37937   0.38145   0.41097
 Alpha virt. eigenvalues --    0.41196   0.42674   0.43962   0.45274   0.47826

 Mulliken charges:
               1
     1  C   -0.004504
     2  C   -0.077163
     3  C   -0.076614
     4  C   -0.004504
     5  C   -0.077163
     6  H    0.079223
     7  H    0.077694
     8  H    0.079223
     9  C   -0.076380
    10  C   -0.154812
    11  H    0.076327
    12  H    0.076884
    13  H    0.079344
    14  C   -0.076380
    15  H    0.076884
    16  C   -0.154812
    17  H    0.076327
    18  H    0.079344
    19  C   -0.076614
    20  H    0.077694
 Sum of Mulliken charges =  -0.00000

 Dipole moment (field-independent basis, Debye):
    X=              0.0000    Y=              0.0000    Z=             -0.0000  Tot=              0.0000
 Quadrupole moment (field-independent basis, Debye-Ang):
   XX=            -50.2214   YY=            -50.7163   ZZ=            -58.6254
   XY=              0.0592   XZ=             -0.0000   YZ=             -0.0000

 Normal termination of Gaussian 16 at Wed Apr  4 10:49:25 2018.
