 Gaussian 09, Revision D.01,
 Gaussian 09:  ES64L-G09RevD.01 24-Apr-2013

 -----------------------------------------------------
 # opt freq rb3lyp/6-311++g(3df,3pd) geom=connectivity
 -----------------------------------------------------

 -----------------------------
 BenzeneSelenol WB97XD-CC-PVDZ
 -----------------------------
 Symbolic Z-matrix:
 Charge =  0 Multiplicity = 1

 SCF Done:  E(RB3LYP) =  -2633.87684594     A.U. after   14 cycles
 SCF Done:  E(RB3LYP) =  -2633.87741133     A.U. after   10 cycles
 SCF Done:  E(RB3LYP) =  -2633.87745038     A.U. after   10 cycles
 SCF Done:  E(RB3LYP) =  -2633.87748706     A.U. after   12 cycles
 SCF Done:  E(RB3LYP) =  -2633.87753042     A.U. after   11 cycles
 SCF Done:  E(RB3LYP) =  -2633.87754519     A.U. after   10 cycles
 SCF Done:  E(RB3LYP) =  -2633.87665925     A.U. after   14 cycles
 SCF Done:  E(RB3LYP) =  -2633.87760228     A.U. after   12 cycles
 SCF Done:  E(RB3LYP) =  -2633.87763508     A.U. after   10 cycles
 SCF Done:  E(RB3LYP) =  -2633.87534928     A.U. after   14 cycles
 SCF Done:  E(RB3LYP) =  -2633.87765891     A.U. after   11 cycles
 SCF Done:  E(RB3LYP) =  -2633.87766653     A.U. after    9 cycles
 SCF Done:  E(RB3LYP) =  -2633.87767031     A.U. after   10 cycles
 SCF Done:  E(RB3LYP) =  -2633.87767075     A.U. after    9 cycles
 SCF Done:  E(RB3LYP) =  -2633.87767129     A.U. after    8 cycles
 SCF Done:  E(RB3LYP) =  -2633.87767153     A.U. after    8 cycles
 Optimization completed.
    -- Stationary point found.
 Normal termination of Gaussian 09 at Wed Sep  9 01:44:46 2015.

 ----------------------------------------------------------------------
 #N Geom=AllCheck Guess=TCheck SCRF=Check GenChk RB3LYP/6-311++G(3df,3p
 d) Freq
 ----------------------------------------------------------------------

 Structure from the checkpoint file:  "BSe-B1-2.chk"
 -----------------------------
 BenzeneSelenol WB97XD-CC-PVDZ
 -----------------------------
 Charge =  0 Multiplicity = 1

                         Standard orientation:
 ---------------------------------------------------------------------
 Center     Atomic      Atomic             Coordinates (Angstroms)
 Number     Number       Type             X           Y           Z
 ---------------------------------------------------------------------
      1          6           0       -2.894762   -0.013642   -0.001528
      2          6           0       -2.206251    1.193851   -0.002521
      3          6           0       -0.816426    1.215302   -0.002201
      4          6           0       -0.103352    0.018392    0.003106
      5          6           0       -0.790663   -1.194384    0.005850
      6          6           0       -2.179957   -1.205971    0.001789
      7          1           0       -3.975843   -0.025301   -0.002904
      8          1           0       -2.750234    2.129137   -0.005276
      9          1           0       -0.296184    2.163018   -0.007326
     10          1           0       -0.247467   -2.130231    0.013226
     11          1           0       -2.702896   -2.153075    0.003664
     12         34           0        1.821080   -0.043378   -0.003876
     13          1           0        2.004358    1.410007    0.103449
 ---------------------------------------------------------------------

 SCF Done:  E(RB3LYP) =  -2633.87767153     A.U. after    1 cycles

 The electronic state is 1-A.
 Alpha  occ. eigenvalues -- -453.88319 -58.07881 -52.13325 -52.13197 -52.12964
 Alpha  occ. eigenvalues --  -10.21646 -10.18591 -10.18552 -10.18454 -10.18442
 Alpha  occ. eigenvalues --  -10.17991  -7.82138  -5.76758  -5.76344  -5.75582
 Alpha  occ. eigenvalues --   -2.11790  -2.11725  -2.11061  -2.10729  -2.10632
 Alpha  occ. eigenvalues --   -0.87244  -0.77862  -0.76042  -0.69890  -0.61999
 Alpha  occ. eigenvalues --   -0.59983  -0.52582  -0.47109  -0.46372  -0.43636
 Alpha  occ. eigenvalues --   -0.41897  -0.38853  -0.37712  -0.35910  -0.33094
 Alpha  occ. eigenvalues --   -0.29626  -0.26862  -0.22386
 Alpha virt. eigenvalues --   -0.02687  -0.02479  -0.02319  -0.00487   0.00063
 Alpha virt. eigenvalues --    0.00789   0.02478   0.03093   0.03808   0.04022
 Alpha virt. eigenvalues --    0.05805   0.06713   0.06937   0.07064   0.08221

 Mulliken charges:
               1
     1  C   -0.499150
     2  C    0.056965
     3  C    0.172161
     4  C    0.349794
     5  C   -0.153072
     6  C    0.094583
     7  H    0.016487
     8  H    0.050249
     9  H    0.002149
    10  H    0.011610
    11  H    0.053777
    12  Se  -0.173671
    13  H    0.018118
 Sum of Mulliken charges =   0.00000

 Dipole moment (field-independent basis, Debye):
    X=             -0.8426    Y=              0.5009    Z=              0.0369  Tot=              0.9809
 Quadrupole moment (field-independent basis, Debye-Ang):
   XX=            -50.8551   YY=            -48.2800   ZZ=            -59.6156
   XY=              1.5727   XZ=              0.1199   YZ=              0.2154

  Exact polarizability: 138.451   1.661  99.104   0.148  -0.038  64.592
 Approx polarizability: 209.677   2.533 174.671   0.159   0.401  99.837

                      1                      2                      3
                      A                      A                      A
 Frequencies --    129.5512               170.6681               231.4278
 Red. masses --      1.2616                 2.6902                 4.4097
 Frc consts  --      0.0125                 0.0462                 0.1392
 IR Inten    --      3.1499                 3.2259                 0.3196

                      4                      5                      6
                      A                      A                      A
 Frequencies --    304.8614               407.8299               472.5026
 Red. masses --     10.3379                 2.8363                 3.2339
 Frc consts  --      0.5661                 0.2779                 0.4254
 IR Inten    --      0.0386                 0.0307                 9.8302

                      7                      8                      9
                      A                      A                      A
 Frequencies --    629.9087               679.9032               693.2509
 Red. masses --      6.4386                 6.6909                 2.7179
 Frc consts  --      1.5052                 1.8223                 0.7696
 IR Inten    --      0.0949                10.3548                14.2804

                     10                     11                     12
                      A                      A                      A
 Frequencies --    746.7694               812.5113               850.2578
 Red. masses --      1.3956                 1.0676                 1.2558
 Frc consts  --      0.4586                 0.4153                 0.5349
 IR Inten    --     56.5224                 7.7038                 0.0192

                     13                     14                     15
                      A                      A                      A
 Frequencies --    915.8742               987.1252               988.1785
 Red. masses --      1.3503                 1.8568                 2.8988
 Frc consts  --      0.6673                 1.0660                 1.6678
 IR Inten    --      0.4721                 2.6001                 5.1609

                     16                     17                     18
                      A                      A                      A
 Frequencies --   1002.8922              1038.1073              1091.4005
 Red. masses --      1.2611                 3.9929                 2.2579
 Frc consts  --      0.7473                 2.5352                 1.5846
 IR Inten    --      0.0025                13.5903                14.2523

                     19                     20                     21
                      A                      A                      A
 Frequencies --   1102.3417              1183.3857              1209.2727
 Red. masses --      1.6211                 1.1206                 1.1449
 Frc consts  --      1.1606                 0.9246                 0.9865
 IR Inten    --      3.9936                 0.1947                 2.1434

                     22                     23                     24
                      A                      A                      A
 Frequencies --   1311.3497              1355.6441              1471.4447
 Red. masses --      4.9580                 1.3999                 2.1115
 Frc consts  --      5.0233                 1.5158                 2.6936
 IR Inten    --      1.1767                 1.2111                 7.4301

                     25                     26                     27
                      A                      A                      A
 Frequencies --   1510.1919              1611.9088              1619.0156
 Red. masses --      1.9965                 5.4228                 5.2841
 Frc consts  --      2.6828                 8.3015                 8.1606
 IR Inten    --     26.7973                 1.4953                37.3637

                     28                     29                     30
                      A                      A                      A
 Frequencies --   2391.2487              3165.1596              3171.3909
 Red. masses --      1.0203                 1.0841                 1.0873
 Frc consts  --      3.4375                 6.3990                 6.4431
 IR Inten    --      9.7197                 2.2009                 0.4627

                     31                     32                     33
                      A                      A                      A
 Frequencies --   3182.0753              3188.5786              3198.0359
 Red. masses --      1.0915                 1.0935                 1.0978
 Frc consts  --      6.5118                 6.5503                 6.6149
 IR Inten    --      7.5344                18.0167                11.1835

 - Thermochemistry -
 -------------------
 Temperature   298.150 Kelvin.  Pressure   1.00000 Atm.
 Atom     1 has atomic number  6 and mass  12.00000

 Molecular mass:   157.96347 amu.
 Principal axes and moments of inertia in atomic units:
                           1         2         3
     Eigenvalues --   321.583391879.295012200.78820
           X            0.99997   0.00766   0.00053
           Y           -0.00766   0.99997   0.00093
           Z           -0.00052  -0.00093   1.00000
 This molecule is an asymmetric top.
 Rotational symmetry number  1.
 Rotational temperatures (Kelvin)      0.26934     0.04609     0.03936
 Rotational constants (GHZ):           5.61205     0.96033     0.82004
 Zero-point vibrational energy     256144.8 (Joules/Mol)
                                   61.22007 (Kcal/Mol)
 Warning -- explicit consideration of   6 degrees of freedom as
           vibrations may cause significant error
 Vibrational temperatures:    186.40   245.55   332.97   438.63   586.78
          (Kelvin)            679.83   906.30   978.23   997.43  1074.43
                             1169.02  1223.33  1317.74  1420.25  1421.77
                             1442.94  1493.60  1570.28  1586.02  1702.63
                             1739.87  1886.74  1950.47  2117.08  2172.83
                             2319.17  2329.40  3440.47  4553.95  4562.92
                             4578.29  4587.65  4601.25

 Zero-point correction=                           0.097560 (Hartree/Particle)
 Thermal correction to Energy=                    0.104088
 Thermal correction to Enthalpy=                  0.105032
 Thermal correction to Gibbs Free Energy=         0.065820
 Sum of electronic and zero-point Energies=          -2633.780111
 Sum of electronic and thermal Energies=             -2633.773584
 Sum of electronic and thermal Enthalpies=           -2633.772640
 Sum of electronic and thermal Free Energies=        -2633.811851

                     E (Thermal)             CV                S
                      KCal/Mol        Cal/Mol-Kelvin    Cal/Mol-Kelvin
 Total                   65.316             24.085             82.528
 Electronic               0.000              0.000              0.000
 Translational            0.889              2.981             41.081
 Rotational               0.889              2.981             28.677
 Vibrational             63.539             18.123             12.770
 Vibration     1          0.612              1.924              2.953
 Vibration     2          0.626              1.879              2.428
 Vibration     3          0.653              1.793              1.868
 Vibration     4          0.696              1.664              1.390
 Vibration     5          0.772              1.453              0.934
 Vibration     6          0.829              1.311              0.731

 Optimization completed.
    -- Stationary point found.
 Normal termination of Gaussian 09 at Wed Sep  9 03:15:18 2015.
