 Gaussian 09, Revision D.01,
 Gaussian 09:  EM64L-G09RevD.01 24-Apr-2013

 ------------------------------------------------------
 #p HF/aug-cc-pVQZ pop=full iop(3/33=1,3/36=-1) gfinput
 ------------------------------------------------------

 -------------------
 Title card required
 -------------------
 Symbolic Z-matrix:
 Charge =  0 Multiplicity = 1

                         Standard orientation:
 ---------------------------------------------------------------------
 Center     Atomic      Atomic             Coordinates (Angstroms)
 Number     Number       Type             X           Y           Z
 ---------------------------------------------------------------------
      1          6           0        0.000000    0.000000    0.000000
 ---------------------------------------------------------------------

 SCF Done:  E(RHF) =  -37.6045424575     A.U. after    8 cycles

 Unable to determine electronic state:  an orbital has unidentified symmetry.
 Alpha  occ. eigenvalues --  -11.36499  -0.72563  -0.35843
 Alpha virt. eigenvalues --    0.01886   0.01886   0.08342   0.08990   0.10824
 Alpha virt. eigenvalues --    0.10824   0.23237   0.23237   0.24164   0.24164
 Alpha virt. eigenvalues --    0.24542   0.44533   0.46397   0.46397   0.50321

 Mulliken charges:
               1
     1  C    0.000000
 Sum of Mulliken charges =   0.00000

 Normal termination of Gaussian 09 at Wed Feb 19 07:05:19 2014.
