 Gaussian 09, Revision A.02,
 Gaussian 09:  EM64M-G09RevA.02 11-Jun-2009

 ------------------------------
 # B3LYP/6-31G* Freq=Anharmonic
 ------------------------------

 ---------
 ch3oh.g09
 ---------
 Symbolic Z-matrix:
 Charge =  0 Multiplicity = 1

                         Standard orientation:
 ---------------------------------------------------------------------
 Center     Atomic      Atomic             Coordinates (Angstroms)
 Number     Number       Type             X           Y           Z
 ---------------------------------------------------------------------
      1          6           0        0.662689   -0.019510    0.000007
      2          8           0       -0.749341    0.122527   -0.000003
      3          1           0        1.036210   -0.543799   -0.893353
      4          1           0        1.036200   -0.543799    0.893367
      5          1           0        1.079357    0.991351   -0.000003
      6          1           0       -1.133169   -0.766914   -0.000033
 ---------------------------------------------------------------------

 SCF Done:  E(RB3LYP) =  -115.714404686     A.U. after   13 cycles
 SCF Done:  E(RB3LYP) =  -115.714307137     A.U. after    8 cycles
 SCF Done:  E(RB3LYP) =  -115.714311591     A.U. after    8 cycles
 SCF Done:  E(RB3LYP) =  -115.714339507     A.U. after    8 cycles
 SCF Done:  E(RB3LYP) =  -115.714337179     A.U. after    8 cycles
 SCF Done:  E(RB3LYP) =  -115.714342208     A.U. after    8 cycles
 SCF Done:  E(RB3LYP) =  -115.714342153     A.U. after    8 cycles
 SCF Done:  E(RB3LYP) =  -115.714341466     A.U. after    8 cycles
 SCF Done:  E(RB3LYP) =  -115.714346408     A.U. after    8 cycles
 SCF Done:  E(RB3LYP) =  -115.714387447     A.U. after    7 cycles
 SCF Done:  E(RB3LYP) =  -115.714389605     A.U. after    7 cycles
 SCF Done:  E(RB3LYP) =  -115.714393281     A.U. after    8 cycles
 SCF Done:  E(RB3LYP) =  -115.714395219     A.U. after    7 cycles
 SCF Done:  E(RB3LYP) =  -115.714395240     A.U. after    8 cycles
 SCF Done:  E(RB3LYP) =  -115.714396453     A.U. after    8 cycles
 SCF Done:  E(RB3LYP) =  -115.714396682     A.U. after    8 cycles
 SCF Done:  E(RB3LYP) =  -115.714399038     A.U. after    7 cycles
 SCF Done:  E(RB3LYP) =  -115.714394982     A.U. after    8 cycles
 SCF Done:  E(RB3LYP) =  -115.714403877     A.U. after    8 cycles
 SCF Done:  E(RB3LYP) =  -115.714403868     A.U. after    8 cycles

 Alpha  occ. eigenvalues --  -19.14007 -10.22470  -1.01032  -0.67823  -0.50216
 Alpha  occ. eigenvalues --   -0.43408  -0.41909  -0.33034  -0.26450
 Alpha virt. eigenvalues --    0.07520   0.13080   0.16668   0.17513   0.20566
 Alpha virt. eigenvalues --    0.53407   0.56728   0.57737   0.78642   0.84891
 Alpha virt. eigenvalues --    0.86910   0.90155   0.95369   0.97722   1.02240

 Mulliken atomic charges:
              1
     1  C   -0.205165
     2  O   -0.605394
     3  H    0.129319
     4  H    0.129435
     5  H    0.161445
     6  H    0.390359
 Sum of Mulliken atomic charges =   0.00000

 Dipole moment (field-independent basis, Debye):
    X=              0.7511    Y=             -1.5208    Z=             -0.0174  Tot=              1.6963
 Quadrupole moment (field-independent basis, Debye-Ang):
   XX=            -12.5987   YY=            -11.9859   ZZ=            -13.5800
   XY=              2.2230   XZ=              0.0197   YZ=              0.0162

  Exact polarizability:  17.142   0.987  15.965   0.020   0.023  13.999
 Approx polarizability:  20.939   0.739  20.360   0.022   0.037  16.917

                     1                      2                      3
                     A                      A                      A
 Frequencies --   346.5014              1065.7930              1096.0795
 Red. masses --     1.0692                 2.2411                 1.6376
 Frc consts  --     0.0756                 1.4999                 1.1591
 IR Inten    --   127.6485               120.3295                 1.1125

                     4                      5                      6
                     A                      A                      A
 Frequencies --  1182.9649              1399.9145              1510.4163
 Red. masses --     1.2667                 1.2812                 1.1406
 Frc consts  --     1.0444                 1.4793                 1.5331
 IR Inten    --     0.6219                27.8992                 7.3925

                     7                      8                      9
                     A                      A                      A
 Frequencies --  1524.7326              1541.1958              2998.2225
 Red. masses --     1.0505                 1.0498                 1.0374
 Frc consts  --     1.4390                 1.4691                 5.4947
 IR Inten    --     1.5845                 4.0336                64.3821

                    10                     11                     12
                     A                      A                      A
 Frequencies --  3041.2131              3133.0276              3755.2028
 Red. masses --     1.1059                 1.0962                 1.0664
 Frc consts  --     6.0263                 6.3399                 8.8599
 IR Inten    --    85.4850                34.6148                11.1440

 - Thermochemistry -
 -------------------
 Temperature   298.150 Kelvin.  Pressure   1.00000 Atm.
 Atom     1 has atomic number  6 and mass  12.00000

 Molecular mass:    32.02621 amu.
 Principal axes and moments of inertia in atomic units:
                           1         2         3
     Eigenvalues --    14.19609  72.85724  75.56397
           X            0.99895   0.04582  -0.00001
           Y           -0.04582   0.99895  -0.00002
           Z            0.00001   0.00002   1.00000
 This molecule is an asymmetric top.
 Rotational symmetry number  1.
 Rotational temperatures (Kelvin)      6.10125     1.18882     1.14623
 Rotational constants (GHZ):         127.12950    24.77092    23.88362
 Zero-point vibrational energy     135149.7 (Joules/Mol)
                                   32.30155 (Kcal/Mol)
 Warning -- explicit consideration of   1 degrees of freedom as
           vibrations may cause significant error
 Vibrational temperatures:    498.54  1533.44  1577.01  1702.02  2014.16
          (Kelvin)           2173.15  2193.75  2217.43  4313.77  4375.62
                             4507.72  5402.89

 Zero-point correction=                           0.051476 (Hartree/Particle)
 Thermal correction to Energy=                    0.054766
 Thermal correction to Enthalpy=                  0.055710
 Thermal correction to Gibbs Free Energy=         0.028755
 Sum of electronic and zero-point Energies=           -115.662929
 Sum of electronic and thermal Energies=              -115.659639
 Sum of electronic and thermal Enthalpies=            -115.658694
 Sum of electronic and thermal Free Energies=         -115.685650

                     E (Thermal)             CV                S
                      KCal/Mol        Cal/Mol-Kelvin    Cal/Mol-Kelvin
 Total                   34.366              8.666             56.733
 Electronic               0.000              0.000              0.000
 Translational            0.889              2.981             36.324
 Rotational               0.889              2.981             18.997
 Vibrational             32.589              2.705              1.411
 Vibration     1          0.724              1.582              1.182

 Normal termination of Gaussian 09 at Fri Jun 10 00:16:01 2016.
