 Gaussian 09, Revision D.01,
 Gaussian 09:  EM64L-G09RevD.01 24-Apr-2013

 --------------------------------------------------------------
 #p pbe1pbe/6-311++g(d,p) TD=(50-50,Nstates=12) scf=(tight,xqc)
 --------------------------------------------------------------

 -------
 co pbe0
 -------
 Symbolic Z-matrix:
 Charge =  0 Multiplicity = 1

                         Standard orientation:
 ---------------------------------------------------------------------
 Center     Atomic      Atomic             Coordinates (Angstroms)
 Number     Number       Type             X           Y           Z
 ---------------------------------------------------------------------
      1          6           0        0.000000    0.000000   -0.643075
      2          8           0        0.000000    0.000000    0.482306
 ---------------------------------------------------------------------

 SCF Done:  E(RPBE1PBE) =  -113.217133509     A.U. after    9 cycles

 Excitation energies and oscillator strengths:

 Excited state symmetry could not be determined.
 Excited State   1:      Triplet-?Sym    5.7616 eV  215.19 nm  f=0.0000  <S**2>=2.000
       7 ->  8         0.65189
       7 ->  9         0.24708
       7 -> 13        -0.12098
 This state for optimization and/or second-order correction.
 Total Energy, E(TD-HF/TD-KS) =  -113.005398874
 Copying the excited state density for this state as the 1-particle RhoCI density.

 Excited state symmetry could not be determined.
 Excited State   2:      Triplet-?Sym    5.7616 eV  215.19 nm  f=0.0000  <S**2>=2.000
       7 ->  8        -0.24708
       7 ->  9         0.65189
       7 -> 12        -0.12098

 Excited state symmetry could not be determined.
 Excited State   3:      Triplet-?Sym    7.9043 eV  156.86 nm  f=0.0000  <S**2>=2.000
       5 ->  8         0.49233
       6 ->  9         0.49233

 Excited state symmetry could not be determined.
 Excited State   4:      Singlet-?Sym    8.4709 eV  146.36 nm  f=0.0947  <S**2>=0.000
       7 ->  8         0.41529
       7 ->  9         0.56436

 Excited state symmetry could not be determined.
 Excited State   5:      Singlet-?Sym    8.4709 eV  146.36 nm  f=0.0947  <S**2>=0.000
       7 ->  8         0.56436
       7 ->  9        -0.41529

 Excited state symmetry could not be determined.
 Excited State   6:      Triplet-?Sym    8.6955 eV  142.58 nm  f=0.0000  <S**2>=2.000
       5 ->  9         0.49330
       6 ->  8         0.49330

 Excited state symmetry could not be determined.
 Excited State   7:      Triplet-?Sym    8.6955 eV  142.58 nm  f=0.0000  <S**2>=2.000
       5 ->  8         0.49330
       6 ->  9        -0.49330

 Excited state symmetry could not be determined.
 Excited State   8:      Singlet-?Sym    9.8391 eV  126.01 nm  f=0.0000  <S**2>=0.000
       5 ->  9        -0.49553
       6 ->  8         0.49553

 Excited state symmetry could not be determined.
 Excited State   9:      Triplet-?Sym    9.8391 eV  126.01 nm  f=0.0000  <S**2>=2.000
       5 ->  9        -0.49555
       6 ->  8         0.49555

 Excited State  10:      Triplet-SG    10.0936 eV  122.83 nm  f=0.0000  <S**2>=2.000
       7 -> 10         0.67537
       7 -> 11        -0.18913

 Excited state symmetry could not be determined.
 Excited State  11:      Singlet-?Sym   10.2635 eV  120.80 nm  f=0.0000  <S**2>=0.000
       5 ->  9         0.49662
       6 ->  8         0.49662

 Excited state symmetry could not be determined.
 Excited State  12:      Singlet-?Sym   10.2635 eV  120.80 nm  f=0.0000  <S**2>=0.000
       5 ->  8         0.49662
       6 ->  9        -0.49662

 Excited State  13:      Singlet-SG    10.7458 eV  115.38 nm  f=0.0029  <S**2>=0.000
       7 -> 10         0.69746

 Excited State  14:      Triplet-SG    10.9584 eV  113.14 nm  f=0.0000  <S**2>=2.000
       7 -> 10         0.18873
       7 -> 11         0.67728

 Excited state symmetry could not be determined.
 Excited State  15:      Triplet-?Sym   11.2347 eV  110.36 nm  f=0.0000  <S**2>=2.000
       4 ->  9         0.10684
       7 ->  9         0.11467
       7 -> 12         0.57753
       7 -> 13         0.35525

 Excited state symmetry could not be determined.
 Excited State  16:      Triplet-?Sym   11.2347 eV  110.36 nm  f=0.0000  <S**2>=2.000
       4 ->  8         0.10684
       7 ->  8         0.11467
       7 -> 12        -0.35525
       7 -> 13         0.57753

 Excited State  17:      Singlet-SG    11.3361 eV  109.37 nm  f=0.1947  <S**2>=0.000
       7 -> 11         0.69994

 Excited state symmetry could not be determined.
 Excited State  18:      Singlet-?Sym   11.4874 eV  107.93 nm  f=0.0508  <S**2>=0.000
       7 -> 12         0.11986
       7 -> 13         0.69361

 Excited state symmetry could not be determined.
 Excited State  19:      Singlet-?Sym   11.4874 eV  107.93 nm  f=0.0508  <S**2>=0.000
       7 -> 12         0.69361
       7 -> 13        -0.11986

 Excited state symmetry could not be determined.
 Excited State  20:      Triplet-?Sym   11.9391 eV  103.85 nm  f=0.0000  <S**2>=2.000
       4 ->  8         0.45963
       4 ->  9         0.50139
       7 -> 12        -0.10236

 Excited state symmetry could not be determined.
 Excited State  21:      Triplet-?Sym   11.9391 eV  103.85 nm  f=0.0000  <S**2>=2.000
       4 ->  8         0.50139
       4 ->  9        -0.45963
       7 -> 13        -0.10236

 Excited state symmetry could not be determined.
 Excited State  22:      Singlet-?Sym   13.1752 eV   94.10 nm  f=0.0665  <S**2>=0.000
       5 -> 10         0.68932
       6 -> 10         0.14443

 Excited state symmetry could not be determined.
 Excited State  23:      Singlet-?Sym   13.1752 eV   94.10 nm  f=0.0665  <S**2>=0.000
       5 -> 10        -0.14443
       6 -> 10         0.68932

 Excited state symmetry could not be determined.
 Excited State  24:      Singlet-?Sym   13.7220 eV   90.35 nm  f=0.2470  <S**2>=0.000
       4 -> 10        -0.12880
       5 ->  8         0.39665
       5 -> 13         0.21776
       6 ->  9         0.39665
       6 -> 12         0.21776
       7 -> 14        -0.23000

 The electronic state is 1-SG.
 Alpha  occ. eigenvalues --  -19.31487 -10.34340  -1.20537  -0.60181  -0.49860
 Alpha  occ. eigenvalues --   -0.49860  -0.39543
 Alpha virt. eigenvalues --   -0.02868  -0.02868   0.03886   0.06938   0.07996
 Alpha virt. eigenvalues --    0.07996   0.18971   0.22020   0.22020   0.27356
 Alpha virt. eigenvalues --    0.40645   0.54135   0.54135   0.67031   0.86569

 Mulliken charges:
               1
     1  C   -0.018121
     2  O    0.018121
 Sum of Mulliken charges =   0.00000

 Dipole moment (field-independent basis, Debye):
    X=              0.0000    Y=              0.0000    Z=              0.0930  Tot=              0.0930
 Quadrupole moment (field-independent basis, Debye-Ang):
   XX=            -10.2511   YY=            -10.2511   ZZ=            -12.4054
   XY=              0.0000   XZ=              0.0000   YZ=              0.0000

 Normal termination of Gaussian 09 at Wed Feb 19 07:05:41 2014.
