 Gaussian 09, Revision D.01,
 Gaussian 09:  EM64L-G09RevD.01 24-Apr-2013

 ------------------------------------------------------------------
 #p b3lyp/sto-3g guess=read geom=allcheck td(nstates=5) iop(9/40=2)
 ------------------------------------------------------------------

 Structure from the checkpoint file:  "PhCCCC.chk"
 -----------------
 DVB scan dihedral
 -----------------
 Charge =  0 Multiplicity = 1

                         Standard orientation:
 ---------------------------------------------------------------------
 Center     Atomic      Atomic             Coordinates (Angstroms)
 Number     Number       Type             X           Y           Z
 ---------------------------------------------------------------------
      1          6           0        1.414363    0.229680    0.008641
      2          6           0        0.791980   -1.044733    0.094052
      3          6           0       -0.600762   -1.161715    0.228398
      4          6           0       -1.426742   -0.010957    0.306780
      5          6           0       -0.813602    1.260415    0.187745
      6          1           0        1.403372   -1.954940    0.042737
      7          1           0       -1.057487   -2.159265    0.283630
      8          1           0       -1.436395    2.164678    0.209503
      9          6           0       -2.942742   -0.156322    0.364991
     10          6           0       -3.729547   -0.185179   -0.716607
     11          1           0       -3.340190   -0.012134   -1.727506
     12          1           0       -3.377831   -0.400013    1.349092
     13          1           0       -4.810424   -0.354764   -0.635802
     14          6           0        2.895710    0.405725   -0.137439
     15          1           0        3.226275    1.454042   -0.188820
     16          6           0        3.816055   -0.571374   -0.202203
     17          1           0        3.554646   -1.634519   -0.151664
     18          1           0        4.883045   -0.341417   -0.304147
     19          6           0        0.581493    1.378379    0.056281
     20          1           0        1.037749    2.374812   -0.020861
 ---------------------------------------------------------------------

 SCF Done:  E(RB3LYP) =  -382.298543424     A.U. after    1 cycles

 Excitation energies and oscillator strengths:

 Excited State   1:      Singlet-A      5.6287 eV  220.27 nm  f=0.0018  <S**2>=0.000
      29 -> 37         0.01059
      32 -> 37         0.05446
      33 -> 36         0.01978
      34 -> 36         0.52587
      34 -> 37         0.01280
      34 -> 39         0.04325
      35 -> 36         0.03409
      35 -> 37        -0.46535
      35 -> 38         0.01360
      35 <- 37        -0.01172
 This state for optimization and/or second-order correction.
 Total Energy, E(TD-HF/TD-KS) =  -382.091694196
 Copying the excited state density for this state as the 1-particle RhoCI density.

 Excited State   2:      Singlet-A      6.0621 eV  204.52 nm  f=0.5880  <S**2>=0.000
      22 -> 59         0.01201
      24 -> 45         0.01032
      26 -> 50        -0.01122
      26 -> 57        -0.01202
      27 -> 57         0.01078
      28 -> 40        -0.01789
      28 -> 51        -0.01158
      29 -> 40        -0.01620
      29 -> 51         0.01236
      30 -> 42         0.01411
      30 -> 43        -0.01643
      30 -> 52        -0.02113
      30 -> 54         0.01036
      31 -> 41         0.01003
      32 -> 36        -0.01952
      32 -> 39         0.05306
      33 -> 36        -0.17213
      33 -> 38        -0.01196
      33 -> 39        -0.01210
      34 -> 36        -0.03025
      34 -> 37         0.09103
      35 -> 36         0.67354
      35 -> 37         0.01251
      35 -> 38         0.07537
      28 <- 40        -0.01065
      30 <- 52        -0.01191
      32 <- 39         0.02113
      35 <- 36        -0.07937

 Excited State   3:      Singlet-A      6.4052 eV  193.57 nm  f=0.0340  <S**2>=0.000
      30 -> 36         0.02937
      32 -> 36        -0.04394
      32 -> 38        -0.01053
      32 -> 39         0.01044
      33 -> 36         0.66633
      33 -> 38        -0.02975
      33 -> 39         0.07726
      33 -> 40         0.01592
      34 -> 36        -0.08534
      34 -> 37         0.02711
      35 -> 36         0.15145
      35 -> 37        -0.05318
      35 -> 38         0.10764
      35 -> 39         0.01295
      35 <- 36        -0.02390

 Excited State   4:      Singlet-A      6.6688 eV  185.92 nm  f=0.0110  <S**2>=0.000
      28 -> 38         0.02061
      29 -> 38         0.01813
      32 -> 36         0.03823
      32 -> 38        -0.09995
      33 -> 36        -0.06921
      33 -> 38         0.03949
      33 -> 39        -0.01131
      34 -> 36         0.06390
      34 -> 37        -0.02223
      34 -> 39        -0.01156
      35 -> 36        -0.08841
      35 -> 37         0.08193
      35 -> 38         0.67907
      35 -> 39        -0.01846
      35 <- 36         0.01634

 Excited State   5:      Singlet-A      7.0797 eV  175.13 nm  f=0.1551  <S**2>=0.000
      19 -> 43         0.01028
      22 -> 51        -0.01037
      25 -> 51        -0.01817
      28 -> 37         0.03867
      29 -> 37         0.03941
      30 -> 49        -0.01275
      30 -> 54         0.01629
      30 -> 55         0.01247
      30 -> 60         0.01366
      31 -> 38        -0.03427
      31 -> 42        -0.01067
      31 -> 52         0.01417
      31 -> 54        -0.01005
      32 -> 36        -0.03852
      32 -> 37         0.19469
      33 -> 36         0.09499
      33 -> 37        -0.07973
      34 -> 36         0.41485
      34 -> 37         0.04260
      34 -> 38         0.02866
      34 -> 39        -0.14911
      34 -> 40         0.03626
      35 -> 36         0.03975
      35 -> 37         0.48477
      35 -> 38        -0.08327
      35 -> 39         0.01819
      28 <- 37         0.01015
      29 <- 37         0.01083
      32 <- 37         0.02041
      34 <- 36        -0.04930
      34 <- 39        -0.02074
      34 <- 40         0.01319
      35 <- 37        -0.04898

 The electronic state is 1-A.
 Alpha  occ. eigenvalues --  -10.01895 -10.01872 -10.00737 -10.00709 -10.00612
 Alpha  occ. eigenvalues --  -10.00552 -10.00541 -10.00476  -9.99291  -9.99116
 Alpha  occ. eigenvalues --   -0.80843  -0.75239  -0.71788  -0.69771  -0.66801
 Alpha  occ. eigenvalues --   -0.58174  -0.56023  -0.52803  -0.51181  -0.45797
 Alpha  occ. eigenvalues --   -0.43290  -0.41183  -0.40548  -0.38890  -0.37351
 Alpha  occ. eigenvalues --   -0.36655  -0.34751  -0.31682  -0.31158  -0.29321
 Alpha  occ. eigenvalues --   -0.28409  -0.23943  -0.21017  -0.19321  -0.16311
 Alpha virt. eigenvalues --    0.05354   0.09017   0.11098   0.15124   0.25997
 Alpha virt. eigenvalues --    0.32631   0.35082   0.37336   0.39876   0.41290
 Alpha virt. eigenvalues --    0.41699   0.43365   0.43431   0.44402   0.47554

 Mulliken charges:
               1
     1  C   -0.006222
     2  C   -0.076424
     3  C   -0.079320
     4  C   -0.002377
     5  C   -0.080125
     6  H    0.079019
     7  H    0.080026
     8  H    0.080612
     9  C   -0.076553
    10  C   -0.156569
    11  H    0.079449
    12  H    0.079881
    13  H    0.078237
    14  C   -0.076317
    15  H    0.076566
    16  C   -0.155581
    17  H    0.075995
    18  H    0.078920
    19  C   -0.076832
    20  H    0.077614
 Sum of Mulliken charges =   0.00000

 Dipole moment (field-independent basis, Debye):
    X=             -0.1133    Y=             -0.0456    Z=             -0.0203  Tot=              0.1238
 Quadrupole moment (field-independent basis, Debye-Ang):
   XX=            -50.7767   YY=            -51.9226   ZZ=            -56.7827
   XY=              0.4493   XZ=             -0.5555   YZ=             -0.4220

 Normal termination of Gaussian 09 at Mon Sep  1 17:10:54 2014.
