 Gaussian 09, Revision A.02,
 Gaussian 09:  EM64L-G09RevA.02 11-Jun-2009

 ------------------------------------------------------------------
 #p b3lyp/sto-3g guess=read geom=allcheck td(nstates=5) iop(9/40=2)
 ------------------------------------------------------------------

 Title Card Required
 -------------------
 Redundant internal coordinates taken from checkpoint file:
 PhCCCC.chk
 Charge =  0 Multiplicity = 1

                         Standard orientation:
 ---------------------------------------------------------------------
 Center     Atomic      Atomic             Coordinates (Angstroms)
 Number     Number       Type             X           Y           Z
 ---------------------------------------------------------------------
      1          6           0        0.269481   -1.410087    0.000000
      2          6           0       -1.064752   -0.920700    0.000000
      3          6           0       -1.325434    0.457029    0.000000
      4          6           0       -0.269481    1.410087    0.000000
      5          6           0        1.064752    0.920700    0.000000
      6          1           0       -1.904435   -1.627596    0.000000
      7          1           0       -2.364772    0.813167    0.000000
      8          1           0        1.904435    1.627596    0.000000
      9          6           0       -0.603732    2.869917    0.000000
     10          6           0        0.269481    3.891952    0.000000
     11          1           0        1.355166    3.742013    0.000000
     12          1           0       -1.681904    3.090004    0.000000
     13          1           0       -0.074029    4.932969    0.000000
     14          6           0        0.603732   -2.869917    0.000000
     15          1           0        1.681904   -3.090004    0.000000
     16          6           0       -0.269481   -3.891952    0.000000
     17          1           0       -1.355166   -3.742013    0.000000
     18          1           0        0.074029   -4.932969    0.000000
     19          6           0        1.325434   -0.457029    0.000000
     20          1           0        2.364772   -0.813167    0.000000
 ---------------------------------------------------------------------

 SCF Done:  E(RB3LYP) =  -382.308266580     A.U. after    1 cycles

 Excitation energies and oscillator strengths:

 Excited State   1:      Singlet-BU     5.3351 eV  232.39 nm  f=0.1695  <S**2>=0.000
      32 -> 37        -0.04472
      32 -> 39        -0.01252
      33 -> 38         0.01870
      34 -> 36         0.48186
      34 -> 37         0.03725
      34 -> 39         0.02695
      35 -> 36        -0.30975
      35 -> 37         0.41032
      35 <- 36         0.03717
      35 <- 37         0.01304
 This state for optimization and/or second-order correction.
 Total Energy, E(TD-HF/TD-KS) =  -382.112206536
 Copying the excited state density for this state as the 1-particle RhoCI density.

 Excited State   2:      Singlet-BU     5.3747 eV  230.68 nm  f=0.6789  <S**2>=0.000
      21 -> 44        -0.01025
      23 -> 45        -0.01116
      26 -> 50        -0.01327
      26 -> 57        -0.01013
      28 -> 40         0.01890
      29 -> 51        -0.01507
      30 -> 42         0.01267
      30 -> 52         0.01248
      31 -> 42         0.01382
      31 -> 43        -0.01071
      31 -> 52         0.01207
      31 -> 55        -0.01178
      32 -> 37        -0.02353
      32 -> 39         0.02887
      33 -> 38        -0.04017
      34 -> 36         0.25932
      34 -> 37        -0.05987
      35 -> 36         0.63256
      35 -> 37         0.17344
      28 <- 40         0.01189
      32 <- 39         0.01389
      33 <- 38        -0.02082
      34 <- 37        -0.01063
      35 <- 36        -0.07883

 Excited State   3:      Singlet-AG     6.2152 eV  199.48 nm  f=0.0000  <S**2>=0.000
      32 -> 38         0.02747
      32 -> 40         0.01176
      33 -> 36         0.56417
      33 -> 39         0.04628
      35 -> 38        -0.42280
      35 <- 38        -0.01376

 Excited State   4:      Singlet-BU     6.7730 eV  183.06 nm  f=0.1793  <S**2>=0.000
      17 -> 46        -0.01180
      19 -> 42         0.01413
      22 -> 53        -0.01025
      23 -> 48        -0.01457
      23 -> 51        -0.01045
      25 -> 51        -0.01920
      26 -> 48         0.01825
      26 -> 50        -0.01119
      26 -> 51         0.01238
      29 -> 53         0.01089
      30 -> 42         0.01859
      30 -> 43        -0.01211
      30 -> 49        -0.01310
      30 -> 52         0.01568
      30 -> 54         0.01373
      31 -> 46        -0.01085
      31 -> 47        -0.01283
      31 -> 54         0.01345
      31 -> 55         0.01377
      31 -> 60         0.01329
      32 -> 37         0.14582
      33 -> 38        -0.02315
      34 -> 36        -0.42641
      34 -> 37        -0.01761
      34 -> 39         0.11818
      35 -> 36         0.02944
      35 -> 37         0.53275
      25 <- 51        -0.01043
      32 <- 37         0.02932
      34 <- 36         0.05519
      34 <- 39         0.02884
      35 <- 37        -0.05283

 Excited State   5:      Singlet-AG     7.4123 eV  167.27 nm  f=0.0000  <S**2>=0.000
      32 -> 38         0.04325
      33 -> 36        -0.15294
      33 -> 37         0.56110
      33 -> 39        -0.03001
      34 -> 38         0.34324
      34 -> 40         0.01759
      35 -> 38        -0.20224
      33 <- 36         0.02335
      35 <- 38         0.02268

 The electronic state is 1-AG.
 Alpha  occ. eigenvalues --  -10.02021 -10.02016 -10.00812 -10.00811 -10.00679
 Alpha  occ. eigenvalues --  -10.00678 -10.00605 -10.00591  -9.99233  -9.99233
 Alpha  occ. eigenvalues --   -0.80951  -0.75399  -0.71797  -0.69978  -0.66751
 Alpha  occ. eigenvalues --   -0.58869  -0.55892  -0.53167  -0.51017  -0.45744
 Alpha  occ. eigenvalues --   -0.43936  -0.41060  -0.39796  -0.39607  -0.37397
 Alpha  occ. eigenvalues --   -0.35115  -0.34729  -0.32451  -0.31125  -0.29278
 Alpha  occ. eigenvalues --   -0.28746  -0.26355  -0.21245  -0.19505  -0.15308
 Alpha virt. eigenvalues --    0.03742   0.09036   0.11061   0.18220   0.27253
 Alpha virt. eigenvalues --    0.33223   0.34073   0.37936   0.38145   0.41097
 Alpha virt. eigenvalues --    0.41195   0.42676   0.43964   0.45276   0.47826

 Mulliken atomic charges:
              1
     1  C   -0.004513
     2  C   -0.077155
     3  C   -0.076609
     4  C   -0.004513
     5  C   -0.077155
     6  H    0.079219
     7  H    0.077691
     8  H    0.079219
     9  C   -0.076378
    10  C   -0.154816
    11  H    0.076330
    12  H    0.076886
    13  H    0.079346
    14  C   -0.076378
    15  H    0.076886
    16  C   -0.154816
    17  H    0.076330
    18  H    0.079346
    19  C   -0.076609
    20  H    0.077691
 Sum of Mulliken atomic charges =   0.00000

 Dipole moment (field-independent basis, Debye):
    X=              0.0000    Y=              0.0000    Z=              0.0000  Tot=              0.0000
 Quadrupole moment (field-independent basis, Debye-Ang):
   XX=            -50.2216   YY=            -50.7167   ZZ=            -58.6254
   XY=             -0.0592   XZ=              0.0000   YZ=              0.0000

 1\1\GINC-R2I1N15\SP\RTD-B3LYP-FC\STO-3G\C10H10\NOBOYLE\31-Oct-2009\0\\
 #p b3lyp/sto-3g guess=read geom=allcheck td(nstates=5) iop(9/40=2)\\Ti
 tle Card Required\\0,1\C,0,-0.0758147022,0.,0.0269380605\C,0,-0.004559
 6386,0.,1.4463041813\C,0,1.2336805044,0.,2.1042190084\C,0,2.4572415581
 ,0.,1.3787842089\C,0,2.3859864946,0.,-0.0405819119\H,0,-0.9288538056,0
 .,2.0382912888\H,0,1.2652335181,0.,3.2024280979\H,0,3.3102806616,0.,-0
 .6325690194\C,0,3.752042586,0.,2.1313241969\C,0,4.9872240408,0.,1.6008
 686658\H,0,5.1663339071,0.,0.5196128923\H,0,3.6421497462,0.,3.22622979

 Normal termination of Gaussian 09 at Sat Oct 31 14:41:24 2009.
