 Gaussian 09, Revision D.01,
 Gaussian 09:  EM64L-G09RevD.01 24-Apr-2013

 -------------------
 #p b3lyp/sto-3g opt
 -------------------

 -------------------
 Title Card Required
 -------------------
 Symbolic Z-matrix:
 Charge =  0 Multiplicity = 1

 SCF Done:  E(RB3LYP) =  -382.294280335     A.U. after   12 cycles
 SCF Done:  E(RB3LYP) =  -382.307287277     A.U. after   12 cycles
 SCF Done:  E(RB3LYP) =  -382.308239815     A.U. after   11 cycles
 SCF Done:  E(RB3LYP) =  -382.308265698     A.U. after    8 cycles
 SCF Done:  E(RB3LYP) =  -382.308266580     A.U. after    7 cycles
 Optimization completed.
    -- Stationary point found.

                         Standard orientation:
 ---------------------------------------------------------------------
 Center     Atomic      Atomic             Coordinates (Angstroms)
 Number     Number       Type             X           Y           Z
 ---------------------------------------------------------------------
      1          6           0        0.269481    1.410087    0.000000
      2          6           0       -1.064752    0.920700    0.000000
      3          6           0       -1.325434   -0.457029    0.000000
      4          6           0       -0.269481   -1.410087    0.000000
      5          6           0        1.064752   -0.920700    0.000000
      6          1           0       -1.904435    1.627596    0.000000
      7          1           0       -2.364772   -0.813167    0.000000
      8          1           0        1.904435   -1.627596    0.000000
      9          6           0       -0.603732   -2.869917    0.000000
     10          6           0        0.269481   -3.891952    0.000000
     11          1           0        1.355166   -3.742013    0.000000
     12          1           0       -1.681904   -3.090004    0.000000
     13          1           0       -0.074029   -4.932969    0.000000
     14          6           0        0.603732    2.869917    0.000000
     15          1           0        1.681904    3.090004    0.000000
     16          6           0       -0.269481    3.891952    0.000000
     17          1           0       -1.355166    3.742013    0.000000
     18          1           0        0.074029    4.932969    0.000000
     19          6           0        1.325434    0.457029    0.000000
     20          1           0        2.364772    0.813167    0.000000
 ---------------------------------------------------------------------

 The electronic state is 1-AG.
 Alpha  occ. eigenvalues --  -10.02021 -10.02016 -10.00812 -10.00811 -10.00679
 Alpha  occ. eigenvalues --  -10.00678 -10.00605 -10.00591  -9.99233  -9.99233
 Alpha  occ. eigenvalues --   -0.80951  -0.75399  -0.71797  -0.69978  -0.66751
 Alpha  occ. eigenvalues --   -0.58869  -0.55892  -0.53167  -0.51017  -0.45744
 Alpha  occ. eigenvalues --   -0.43936  -0.41060  -0.39796  -0.39607  -0.37397
 Alpha  occ. eigenvalues --   -0.35115  -0.34729  -0.32451  -0.31125  -0.29278
 Alpha  occ. eigenvalues --   -0.28746  -0.26355  -0.21245  -0.19505  -0.15308
 Alpha virt. eigenvalues --    0.03742   0.09036   0.11061   0.18220   0.27253
 Alpha virt. eigenvalues --    0.33223   0.34073   0.37936   0.38145   0.41097
 Alpha virt. eigenvalues --    0.41195   0.42676   0.43964   0.45276   0.47826

 Mulliken charges:
               1
     1  C   -0.004513
     2  C   -0.077156
     3  C   -0.076609
     4  C   -0.004513
     5  C   -0.077156
     6  H    0.079219
     7  H    0.077691
     8  H    0.079219
     9  C   -0.076378
    10  C   -0.154816
    11  H    0.076330
    12  H    0.076886
    13  H    0.079346
    14  C   -0.076378
    15  H    0.076886
    16  C   -0.154816
    17  H    0.076330
    18  H    0.079346
    19  C   -0.076609
    20  H    0.077691
 Sum of Mulliken charges =   0.00000

 Dipole moment (field-independent basis, Debye):
    X=              0.0000    Y=              0.0000    Z=              0.0000  Tot=              0.0000
 Quadrupole moment (field-independent basis, Debye-Ang):
   XX=            -50.2216   YY=            -50.7167   ZZ=            -58.6254
   XY=              0.0592   XZ=              0.0000   YZ=              0.0000

 Normal termination of Gaussian 09 at Mon Sep  1 16:54:48 2014.
