 Gaussian 09, Revision D.01,
 Gaussian 09:  EM64L-G09RevD.01 24-Apr-2013

 ---------------------------------------------
 #p b3lyp/sto-3g guess=read freq geom=allcheck
 ---------------------------------------------

 Structure from the checkpoint file:  "PhCCCC.chk"
 -------------------
 Title Card Required
 -------------------
 Charge =  0 Multiplicity = 1

                         Standard orientation:
 ---------------------------------------------------------------------
 Center     Atomic      Atomic             Coordinates (Angstroms)
 Number     Number       Type             X           Y           Z
 ---------------------------------------------------------------------
      1          6           0        0.269481    1.410087    0.000000
      2          6           0       -1.064752    0.920700    0.000000
      3          6           0       -1.325434   -0.457029    0.000000
      4          6           0       -0.269481   -1.410087    0.000000
      5          6           0        1.064752   -0.920700    0.000000
      6          1           0       -1.904435    1.627596    0.000000
      7          1           0       -2.364772   -0.813167    0.000000
      8          1           0        1.904435   -1.627596    0.000000
      9          6           0       -0.603732   -2.869917    0.000000
     10          6           0        0.269481   -3.891952    0.000000
     11          1           0        1.355166   -3.742013    0.000000
     12          1           0       -1.681904   -3.090004    0.000000
     13          1           0       -0.074029   -4.932969    0.000000
     14          6           0        0.603732    2.869917    0.000000
     15          1           0        1.681904    3.090004    0.000000
     16          6           0       -0.269481    3.891952    0.000000
     17          1           0       -1.355166    3.742013    0.000000
     18          1           0        0.074029    4.932969    0.000000
     19          6           0        1.325434    0.457029    0.000000
     20          1           0        2.364772    0.813167    0.000000
 ---------------------------------------------------------------------

 SCF Done:  E(RB3LYP) =  -382.308266580     A.U. after    1 cycles

 The electronic state is 1-AG.
 Alpha  occ. eigenvalues --  -10.02021 -10.02016 -10.00812 -10.00811 -10.00679
 Alpha  occ. eigenvalues --  -10.00678 -10.00605 -10.00591  -9.99233  -9.99233
 Alpha  occ. eigenvalues --   -0.80951  -0.75399  -0.71797  -0.69978  -0.66751
 Alpha  occ. eigenvalues --   -0.58869  -0.55892  -0.53167  -0.51017  -0.45744
 Alpha  occ. eigenvalues --   -0.43936  -0.41060  -0.39796  -0.39607  -0.37397
 Alpha  occ. eigenvalues --   -0.35115  -0.34729  -0.32451  -0.31125  -0.29278
 Alpha  occ. eigenvalues --   -0.28746  -0.26355  -0.21245  -0.19505  -0.15308
 Alpha virt. eigenvalues --    0.03742   0.09036   0.11061   0.18220   0.27253
 Alpha virt. eigenvalues --    0.33223   0.34073   0.37936   0.38145   0.41097
 Alpha virt. eigenvalues --    0.41195   0.42676   0.43964   0.45276   0.47826

 Mulliken charges:
               1
     1  C   -0.004513
     2  C   -0.077155
     3  C   -0.076609
     4  C   -0.004513
     5  C   -0.077155
     6  H    0.079219
     7  H    0.077691
     8  H    0.079219
     9  C   -0.076378
    10  C   -0.154816
    11  H    0.076330
    12  H    0.076886
    13  H    0.079346
    14  C   -0.076378
    15  H    0.076886
    16  C   -0.154816
    17  H    0.076330
    18  H    0.079346
    19  C   -0.076609
    20  H    0.077691
 Sum of Mulliken charges =   0.00000

 Dipole moment (field-independent basis, Debye):
    X=              0.0000    Y=              0.0000    Z=              0.0000  Tot=              0.0000
 Quadrupole moment (field-independent basis, Debye-Ang):
   XX=            -50.2216   YY=            -50.7167   ZZ=            -58.6254
   XY=              0.0592   XZ=              0.0000   YZ=              0.0000

  Exact polarizability:  68.238  -6.778 143.010   0.000   0.000  11.343
 Approx polarizability: 124.068 -22.165 223.847   0.000   0.000  13.774

                      1                      2                      3
                     AU                     BG                     AU
 Frequencies --     52.7881                83.9373               148.1576
 Red. masses --      3.2050                 2.4755                 2.0858
 Frc consts  --      0.0053                 0.0103                 0.0270
 IR Inten    --      0.0323                 0.0000                 0.3826

                      4                      5                      6
                     BU                     AG                     BG
 Frequencies --    178.6728               262.8397               297.7975
 Red. masses --      3.3792                 3.2173                 2.3515
 Frc consts  --      0.0636                 0.1310                 0.1229
 IR Inten    --      0.2686                 0.0000                 0.0000

                      7                      8                      9
                     AG                     AU                     AU
 Frequencies --    407.3942               424.4505               467.4915
 Red. masses --      4.7928                 3.0389                 2.2572
 Frc consts  --      0.4687                 0.3226                 0.2907
 IR Inten    --      0.0000                 0.1044                 5.7875

                     10                     11                     12
                     BU                     AG                     BG
 Frequencies --    485.8775               577.9705               656.1727
 Red. masses --      3.2335                 2.8257                 2.0770
 Frc consts  --      0.4498                 0.5561                 0.5269
 IR Inten    --      1.8992                 0.0000                 0.0000

                     13                     14                     15
                     AG                     AU                     BU
 Frequencies --    673.2590               706.4111               734.7939
 Red. masses --      6.9116                 1.4914                 3.1874
 Frc consts  --      1.8458                 0.4385                 1.0140
 IR Inten    --      0.0000                 0.4263                 4.3206

                     16                     17                     18
                     BG                     AG                     BG
 Frequencies --    810.1866               862.6787               895.7477
 Red. masses --      3.3380                 4.4468                 1.2562
 Frc consts  --      1.2910                 1.9498                 0.5939
 IR Inten    --      0.0000                 0.0000                 0.0000

                     19                     20                     21
                     AU                     BG                     AU
 Frequencies --    897.5569               980.2309               980.3382
 Red. masses --      1.6929                 1.3647                 1.3674
 Frc consts  --      0.8035                 0.7726                 0.7743
 IR Inten    --     26.4057                 0.0000                36.1943

                     22                     23                     24
                     BG                     AU                     BU
 Frequencies --   1020.0258              1038.5285              1073.5742
 Red. masses --      1.2577                 1.3322                 2.9253
 Frc consts  --      0.7710                 0.8465                 1.9865
 IR Inten    --      0.0000                 0.0147                 0.5989

                     25                     26                     27
                     BU                     AU                     BG
 Frequencies --   1100.4003              1105.4118              1105.5657
 Red. masses --      1.4467                 1.0901                 1.0915
 Frc consts  --      1.0321                 0.7848                 0.7860
 IR Inten    --      8.9115                13.3291                 0.0000

                     28                     29                     30
                     AG                     BU                     AG
 Frequencies --   1109.0730              1205.8919              1263.8740
 Red. masses --      1.5057                 1.3536                 1.2451
 Frc consts  --      1.0912                 1.1597                 1.1719
 IR Inten    --      0.0000                 1.5218                 0.0000

                     31                     32                     33
                     BU                     AG                     BU
 Frequencies --   1285.0559              1296.0504              1351.5509
 Red. masses --      2.3417                 2.8069                 5.1832
 Frc consts  --      2.2784                 2.7779                 5.5784
 IR Inten    --      0.1041                 0.0000                 9.4399

                     34                     35                     36
                     AG                     BU                     AG
 Frequencies --   1399.3807              1419.3439              1425.9357
 Red. masses --      1.4252                 1.3402                 1.2527
 Frc consts  --      1.6444                 1.5907                 1.5008
 IR Inten    --      0.0000                 8.2410                 0.0000

                     37                     38                     39
                     BU                     AG                     BU
 Frequencies --   1515.4284              1564.9374              1574.6574
 Red. masses --      2.5348                 1.3007                 1.2986
 Frc consts  --      3.4298                 1.8768                 1.8971
 IR Inten    --     18.8669                 0.0000                 0.5217

                     40                     41                     42
                     BU                     AG                     AG
 Frequencies --   1641.3861              1691.5897              1739.8210
 Red. masses --      2.4906                 5.1069                 5.6028
 Frc consts  --      3.9535                 8.6099                 9.9923
 IR Inten    --     15.0523                 0.0000                 0.0000

                     43                     44                     45
                     AG                     BU                     BU
 Frequencies --   1814.1807              1815.0418              3397.7981
 Red. masses --      3.9927                 3.9551                 1.0629
 Frc consts  --      7.7425                 7.6768                 7.2301
 IR Inten    --      0.0000                 1.4854                98.3705

                     46                     47                     48
                     AG                     BU                     AG
 Frequencies --   3398.5150              3439.0187              3439.0647
 Red. masses --      1.0629                 1.0978                 1.0978
 Frc consts  --      7.2328                 7.6495                 7.6498
 IR Inten    --      0.0000                 4.3484                 0.0000

                     49                     50                     51
                     BU                     AG                     BU
 Frequencies --   3448.4051              3451.9231              3468.3998
 Red. masses --      1.0917                 1.0916                 1.0985
 Frc consts  --      7.6487                 7.6636                 7.7862
 IR Inten    --      0.7998                 0.0000                 5.8530

                     52                     53                     54
                     AG                     BU                     AG
 Frequencies --   3471.3471              3549.6914              3549.7032
 Red. masses --      1.0995                 1.1182                 1.1182
 Frc consts  --      7.8060                 8.3016                 8.3016
 IR Inten    --      0.0000                 0.0050                 0.0000

 - Thermochemistry -
 -------------------
 Temperature   298.150 Kelvin.  Pressure   1.00000 Atm.
 Atom     1 has atomic number  6 and mass  12.00000

 Molecular mass:   130.07825 amu.
 Principal axes and moments of inertia in atomic units:
                           1         2         3
     Eigenvalues --   390.088612634.890833024.97945
           X            0.02413   0.99971   0.00000
           Y            0.99971  -0.02413   0.00000
           Z            0.00000   0.00000   1.00000
 This molecule is an asymmetric top.
 Rotational symmetry number  2.
 Rotational temperatures (Kelvin)      0.22204     0.03287     0.02863
 Rotational constants (GHZ):           4.62649     0.68494     0.59661
 Zero-point vibrational energy     465080.1 (Joules/Mol)
                                  111.15681 (Kcal/Mol)
 Warning -- explicit consideration of  11 degrees of freedom as
           vibrations may cause significant error
 Vibrational temperatures:     75.95   120.77   213.17   257.07   378.17
          (Kelvin)            428.46   586.15   610.69   672.62   699.07
                              831.57   944.08   968.67  1016.37  1057.20
                             1165.68  1241.20  1288.78  1291.38  1410.33
                             1410.49  1467.59  1494.21  1544.63  1583.23
                             1590.44  1590.66  1595.71  1735.01  1818.43
                             1848.91  1864.73  1944.58  2013.39  2042.12
                             2051.60  2180.36  2251.59  2265.58  2361.59
                             2433.82  2503.21  2610.20  2611.44  4888.67
                             4889.70  4947.97  4948.04  4961.48  4966.54
                             4990.25  4994.49  5107.21  5107.22

 Zero-point correction=                           0.177140 (Hartree/Particle)
 Thermal correction to Energy=                    0.186032
 Thermal correction to Enthalpy=                  0.186976
 Thermal correction to Gibbs Free Energy=         0.143335
 Sum of electronic and zero-point Energies=           -382.131127
 Sum of electronic and thermal Energies=              -382.122235
 Sum of electronic and thermal Enthalpies=            -382.121290
 Sum of electronic and thermal Free Energies=         -382.164931

                     E (Thermal)             CV                S
                      KCal/Mol        Cal/Mol-Kelvin    Cal/Mol-Kelvin
 Total                  116.737             33.566             91.850
 Electronic               0.000              0.000              0.000
 Translational            0.889              2.981             40.502
 Rotational               0.889              2.981             28.143
 Vibrational            114.959             27.605             23.205
 Vibration     1          0.596              1.976              4.710
 Vibration     2          0.601              1.960              3.797
 Vibration     3          0.618              1.905              2.696
 Vibration     4          0.629              1.869              2.342
 Vibration     5          0.670              1.741              1.643
 Vibration     6          0.691              1.678              1.429
 Vibration     7          0.772              1.454              0.936
 Vibration     8          0.786              1.417              0.877
 Vibration     9          0.825              1.322              0.745
 Vibration    10          0.842              1.281              0.694
 Vibration    11          0.934              1.079              0.489

 Optimization completed.
    -- Stationary point found.
 Normal termination of Gaussian 09 at Mon Sep  1 17:06:25 2014.
