 Gaussian 09, Revision D.01,
 Gaussian 09:  EM64L-G09RevD.01 24-Apr-2013

 ---------------------------------------------
 #p ub3lyp/sto-3g pop=full iop(3/33=1,3/36=-1)
 ---------------------------------------------

 -------
 Notitle
 -------
 Symbolic Z-matrix:
 Charge =  1 Multiplicity = 2

                         Standard orientation:
 ---------------------------------------------------------------------
 Center     Atomic      Atomic             Coordinates (Angstroms)
 Number     Number       Type             X           Y           Z
 ---------------------------------------------------------------------
      1          6           0        0.269481   -1.410087    0.000000
      2          6           0       -1.064752   -0.920700    0.000000
      3          6           0       -1.325434    0.457029    0.000000
      4          6           0       -0.269481    1.410087    0.000000
      5          6           0        1.064752    0.920700    0.000000
      6          1           0       -1.904434   -1.627596    0.000000
      7          1           0       -2.364772    0.813167    0.000000
      8          1           0        1.904434    1.627596    0.000000
      9          6           0       -0.603732    2.869917    0.000000
     10          6           0        0.269481    3.891952    0.000000
     11          1           0        1.355166    3.742014    0.000000
     12          1           0       -1.681904    3.090005    0.000000
     13          1           0       -0.074029    4.932969    0.000000
     14          6           0        0.603732   -2.869917    0.000000
     15          1           0        1.681904   -3.090005    0.000000
     16          6           0       -0.269481   -3.891952    0.000000
     17          1           0       -1.355166   -3.742014    0.000000
     18          1           0        0.074029   -4.932969    0.000000
     19          6           0        1.325434   -0.457029    0.000000
     20          1           0        2.364772   -0.813167    0.000000
 ---------------------------------------------------------------------

 SCF Done:  E(UB3LYP) =  -382.081392366     A.U. after   19 cycles

 The electronic state is 2-BG.
 Alpha  occ. eigenvalues --  -10.25356 -10.25351 -10.21930 -10.21926 -10.21792
 Alpha  occ. eigenvalues --  -10.21783 -10.21774 -10.21772 -10.21539 -10.21539
 Alpha  occ. eigenvalues --   -1.02076  -0.96193  -0.92166  -0.89905  -0.87687
 Alpha  occ. eigenvalues --   -0.78725  -0.75962  -0.72275  -0.70379  -0.65031
 Alpha  occ. eigenvalues --   -0.63512  -0.60374  -0.59603  -0.58792  -0.56838
 Alpha  occ. eigenvalues --   -0.55243  -0.53736  -0.53363  -0.50120  -0.49297
 Alpha  occ. eigenvalues --   -0.48269  -0.47367  -0.41798  -0.39420  -0.36976
 Alpha virt. eigenvalues --   -0.17750  -0.11127  -0.09444  -0.02960   0.06021
 Alpha virt. eigenvalues --    0.13951   0.14907   0.17925   0.19661   0.21543
 Alpha virt. eigenvalues --    0.22103   0.23990   0.24156   0.26213   0.28528

  Beta  occ. eigenvalues --  -10.25059 -10.25054 -10.21899 -10.21896 -10.21858
  Beta  occ. eigenvalues --  -10.21858 -10.21770 -10.21759 -10.21092 -10.21092
  Beta  occ. eigenvalues --   -1.01471  -0.95449  -0.91379  -0.89740  -0.86467
  Beta  occ. eigenvalues --   -0.78194  -0.75556  -0.71884  -0.70067  -0.64811
  Beta  occ. eigenvalues --   -0.63305  -0.60100  -0.59324  -0.58502  -0.56766
  Beta  occ. eigenvalues --   -0.54949  -0.53541  -0.51736  -0.49958  -0.49147
  Beta  occ. eigenvalues --   -0.48111  -0.45085  -0.39102  -0.38882
  Beta virt. eigenvalues --   -0.30053  -0.14705  -0.10316  -0.07372  -0.00823
  Beta virt. eigenvalues --    0.07639   0.14194   0.15096   0.18111   0.19812
  Beta virt. eigenvalues --    0.22106   0.22638   0.24293   0.24658   0.26928

 Mulliken charges and spin densities:
               1          2
     1  C    0.055734   0.213023
     2  C   -0.040805   0.025415
     3  C   -0.038512   0.019730
     4  C    0.055734   0.213023
     5  C   -0.040805   0.025415
     6  H    0.123202  -0.001508
     7  H    0.127046  -0.001291
     8  H    0.123202  -0.001508
     9  C   -0.040160  -0.056126
    10  C   -0.076791   0.327895
    11  H    0.123965  -0.014409
    12  H    0.124620   0.002075
    13  H    0.141703  -0.014803
    14  C   -0.040160  -0.056126
    15  H    0.124620   0.002075
    16  C   -0.076791   0.327895
    17  H    0.123965  -0.014409
    18  H    0.141703  -0.014803
    19  C   -0.038512   0.019730
    20  H    0.127046  -0.001291
 Sum of Mulliken charges =   1.00000   1.00000

 Normal termination of Gaussian 09 at Mon Sep  1 17:11:52 2014.
