 Gaussian 09, Revision D.01,
 Gaussian 09:  ES64L-G09RevD.01 24-Apr-2013

 ----------------------------------------------------------------------
 # b3lyp/sto-3g BOMD=(MaxPoints=35, Ntraj=1, Update=15, RTemp=298) # gu
 ess=read geom=allcheck
 ----------------------------------------------------------------------

 Structure from the checkpoint file:  "PhCCCC.chk"
 -------------------
 Title Card Required
 -------------------
 Charge =  0 Multiplicity = 1

                         Standard orientation:
 ---------------------------------------------------------------------
 Center     Atomic      Atomic             Coordinates (Angstroms)
 Number     Number       Type             X           Y           Z
 ---------------------------------------------------------------------
      1          6           0        0.269481    1.410087    0.000000
      2          6           0       -1.064752    0.920700    0.000000
      3          6           0       -1.325434   -0.457029    0.000000
      4          6           0       -0.269481   -1.410087    0.000000
      5          6           0        1.064752   -0.920700    0.000000
      6          1           0       -1.904435    1.627596    0.000000
      7          1           0       -2.364772   -0.813167    0.000000
      8          1           0        1.904435   -1.627596    0.000000
      9          6           0       -0.603732   -2.869917    0.000000
     10          6           0        0.269481   -3.891952    0.000000
     11          1           0        1.355166   -3.742013    0.000000
     12          1           0       -1.681904   -3.090004    0.000000
     13          1           0       -0.074029   -4.932969    0.000000
     14          6           0        0.603732    2.869917    0.000000
     15          1           0        1.681904    3.090004    0.000000
     16          6           0       -0.269481    3.891952    0.000000
     17          1           0       -1.355166    3.742013    0.000000
     18          1           0        0.074029    4.932969    0.000000
     19          6           0        1.325434    0.457029    0.000000
     20          1           0        2.364772    0.813167    0.000000
 ---------------------------------------------------------------------

 SCF Done:  E(RB3LYP) =  -382.308266580     A.U. after    1 cycles
 SCF Done:  E(RB3LYP) =  -382.160750524     A.U. after   16 cycles
 SCF Done:  E(RB3LYP) =  -382.205336990     A.U. after   13 cycles
 SCF Done:  E(RB3LYP) =  -382.205313687     A.U. after    7 cycles
 SCF Done:  E(RB3LYP) =  -382.214636077     A.U. after   14 cycles
 SCF Done:  E(RB3LYP) =  -382.220573890     A.U. after   13 cycles
 SCF Done:  E(RB3LYP) =  -382.219869632     A.U. after   14 cycles
 SCF Done:  E(RB3LYP) =  -382.211801264     A.U. after   14 cycles
 SCF Done:  E(RB3LYP) =  -382.198289149     A.U. after   13 cycles
 SCF Done:  E(RB3LYP) =  -382.187368776     A.U. after   13 cycles
 SCF Done:  E(RB3LYP) =  -382.217069649     A.U. after   13 cycles
 SCF Done:  E(RB3LYP) =  -382.225738722     A.U. after   13 cycles
 SCF Done:  E(RB3LYP) =  -382.229290904     A.U. after   13 cycles
 SCF Done:  E(RB3LYP) =  -382.227179632     A.U. after   13 cycles
 SCF Done:  E(RB3LYP) =  -382.219658892     A.U. after   13 cycles
 SCF Done:  E(RB3LYP) =  -382.209368356     A.U. after   13 cycles
 SCF Done:  E(RB3LYP) =  -382.202019439     A.U. after   12 cycles
 SCF Done:  E(RB3LYP) =  -382.202736032     A.U. after   13 cycles
 SCF Done:  E(RB3LYP) =  -382.210216254     A.U. after   13 cycles
 SCF Done:  E(RB3LYP) =  -382.218765208     A.U. after   13 cycles

 Alpha  occ. eigenvalues --  -10.01827 -10.01755 -10.00594 -10.00484 -10.00440
 Alpha  occ. eigenvalues --  -10.00232 -10.00196 -10.00112  -9.99535  -9.99106
 Alpha  occ. eigenvalues --   -0.80137  -0.74154  -0.70163  -0.69158  -0.64866
 Alpha  occ. eigenvalues --   -0.57640  -0.55294  -0.53083  -0.49852  -0.44511
 Alpha  occ. eigenvalues --   -0.42585  -0.40956  -0.38579  -0.37635  -0.36830
 Alpha  occ. eigenvalues --   -0.34800  -0.33335  -0.31734  -0.30696  -0.28307
 Alpha  occ. eigenvalues --   -0.27705  -0.23891  -0.19454  -0.18448  -0.14563
 Alpha virt. eigenvalues --    0.03740   0.08171   0.09005   0.15341   0.24185
 Alpha virt. eigenvalues --    0.28162   0.31354   0.33128   0.37140   0.37565
 Alpha virt. eigenvalues --    0.40136   0.41444   0.43086   0.43476   0.45846

 Mulliken charges:
               1
     1  C   -0.005423
     2  C   -0.092278
     3  C   -0.062423
     4  C   -0.012274
     5  C   -0.080217
     6  H    0.089064
     7  H    0.066602
     8  H    0.077828
     9  C   -0.074514
    10  C   -0.158041
    11  H    0.077494
    12  H    0.084375
    13  H    0.084314
    14  C   -0.076883
    15  H    0.068929
    16  C   -0.108864
    17  H    0.058234
    18  H    0.063787
    19  C   -0.082062
    20  H    0.082351
 Sum of Mulliken charges =   0.00000

 Dipole moment (field-independent basis, Debye):
    X=              0.1823    Y=              0.0604    Z=              0.3235  Tot=              0.3762
 Quadrupole moment (field-independent basis, Debye-Ang):
   XX=            -50.8810   YY=            -50.3381   ZZ=            -57.7746
   XY=             -0.4149   XZ=              0.0009   YZ=             -1.5027

  Exact polarizability:   0.000   0.000   0.000   0.000   0.000   0.000
 Approx polarizability: 127.790 -21.493 228.450  -0.693  -6.296  27.486

 Normal termination of Gaussian 09 at Thu Jun  2 17:20:52 2016.
