 Gaussian 09, Revision D.01,
 Gaussian 09:  EM64L-G09RevD.01 24-Apr-2013

 ---------------------------------------------------
 #p ub3lyp/sto-3g pop=full iop(3/33=1,3/36=-1) nosym
 ---------------------------------------------------

 -------
 Notitle
 -------
 Symbolic Z-matrix:
 Charge =  1 Multiplicity = 2

                          Input orientation:
 ---------------------------------------------------------------------
 Center     Atomic      Atomic             Coordinates (Angstroms)
 Number     Number       Type             X           Y           Z
 ---------------------------------------------------------------------
      1          6           0        0.000000    0.000000    0.000000
      2          6           0        0.000000    0.000000    1.421154
      3          6           0        1.203695    0.000000    2.140325
      4          6           0        2.462090    0.000000    1.477152
      5          6           0        2.462090    0.000000    0.055998
      6          1           0       -0.952813    0.000000    1.966053
      7          1           0        1.180146    0.000000    3.238735
      8          1           0        3.414904    0.000000   -0.488901
      9          6           0        3.717531    0.000000    2.293665
     10          6           0        4.977755    0.000000    1.825807
     11          1           0        5.210853    0.000000    0.754892
     12          1           0        3.552880    0.000000    3.381684
     13          1           0        5.836811    0.000000    2.506791
     14          6           0       -1.255441    0.000000   -0.816513
     15          1           0       -1.090790    0.000000   -1.904532
     16          6           0       -2.515665    0.000000   -0.348656
     17          1           0       -2.748763    0.000000    0.722260
     18          1           0       -3.374721    0.000000   -1.029640
     19          6           0        1.258395    0.000000   -0.663174
     20          1           0        1.281944    0.000000   -1.761584
 ---------------------------------------------------------------------

 SCF Done:  E(UB3LYP) =  -382.081395204     A.U. after   19 cycles

 Alpha  occ. eigenvalues --  -10.25357 -10.25352 -10.21929 -10.21926 -10.21792
 Alpha  occ. eigenvalues --  -10.21783 -10.21773 -10.21772 -10.21539 -10.21539
 Alpha  occ. eigenvalues --   -1.02076  -0.96193  -0.92166  -0.89904  -0.87687
 Alpha  occ. eigenvalues --   -0.78725  -0.75962  -0.72275  -0.70379  -0.65031
 Alpha  occ. eigenvalues --   -0.63512  -0.60374  -0.59603  -0.58792  -0.56838
 Alpha  occ. eigenvalues --   -0.55243  -0.53736  -0.53364  -0.50120  -0.49297
 Alpha  occ. eigenvalues --   -0.48269  -0.47367  -0.41797  -0.39420  -0.36976
 Alpha virt. eigenvalues --   -0.17750  -0.11127  -0.09444  -0.02960   0.06021
 Alpha virt. eigenvalues --    0.13951   0.14907   0.17925   0.19661   0.21544
 Alpha virt. eigenvalues --    0.22103   0.23990   0.24156   0.26213   0.28528

  Beta  occ. eigenvalues --  -10.25059 -10.25054 -10.21899 -10.21895 -10.21858
  Beta  occ. eigenvalues --  -10.21858 -10.21770 -10.21759 -10.21092 -10.21092
  Beta  occ. eigenvalues --   -1.01471  -0.95449  -0.91379  -0.89740  -0.86467
  Beta  occ. eigenvalues --   -0.78194  -0.75556  -0.71884  -0.70067  -0.64811
  Beta  occ. eigenvalues --   -0.63305  -0.60100  -0.59324  -0.58502  -0.56766
  Beta  occ. eigenvalues --   -0.54949  -0.53541  -0.51737  -0.49958  -0.49147
  Beta  occ. eigenvalues --   -0.48111  -0.45085  -0.39102  -0.38882
  Beta virt. eigenvalues --   -0.30053  -0.14705  -0.10316  -0.07372  -0.00823
  Beta virt. eigenvalues --    0.07639   0.14194   0.15096   0.18111   0.19812
  Beta virt. eigenvalues --    0.22106   0.22638   0.24293   0.24658   0.26928

 Mulliken charges and spin densities:
               1          2
     1  C    0.055741   0.213022
     2  C   -0.040811   0.025412
     3  C   -0.038509   0.019733
     4  C    0.055741   0.213022
     5  C   -0.040811   0.025412
     6  H    0.123203  -0.001508
     7  H    0.127045  -0.001291
     8  H    0.123203  -0.001508
     9  C   -0.040165  -0.056127
    10  C   -0.076790   0.327897
    11  H    0.123965  -0.014409
    12  H    0.124620   0.002075
    13  H    0.141703  -0.014804
    14  C   -0.040165  -0.056127
    15  H    0.124620   0.002075
    16  C   -0.076790   0.327897
    17  H    0.123965  -0.014409
    18  H    0.141703  -0.014804
    19  C   -0.038509   0.019733
    20  H    0.127045  -0.001291
 Sum of Mulliken charges =   1.00000   1.00000

 Normal termination of Gaussian 09 at Mon Sep  1 17:12:09 2014.
