 Gaussian 09, Revision D.01,
 Gaussian 09:  ES64L-G09RevD.01 24-Apr-2013

 --------------------------------
 #p b3lyp/sto-3g opt=modredundant
 --------------------------------

 -----------------
 DVB scan dihedral
 -----------------
 Symbolic Z-matrix:
 Charge =  0 Multiplicity = 1

 SCF Done:  E(RB3LYP) =  -382.308266579     A.U. after   13 cycles
 Optimization completed.
    -- Stationary point found.
 SCF Done:  E(RB3LYP) =  -382.304555965     A.U. after   14 cycles
 SCF Done:  E(RB3LYP) =  -382.306820149     A.U. after   12 cycles
 SCF Done:  E(RB3LYP) =  -382.306934423     A.U. after   11 cycles
 SCF Done:  E(RB3LYP) =  -382.306946128     A.U. after   10 cycles
 SCF Done:  E(RB3LYP) =  -382.306946874     A.U. after    8 cycles
 Optimization completed.
 SCF Done:  E(RB3LYP) =  -382.299851627     A.U. after   15 cycles
 SCF Done:  E(RB3LYP) =  -382.302399439     A.U. after   12 cycles
 SCF Done:  E(RB3LYP) =  -382.302645039     A.U. after   11 cycles
 SCF Done:  E(RB3LYP) =  -382.302649260     A.U. after    9 cycles
 SCF Done:  E(RB3LYP) =  -382.302649284     A.U. after   10 cycles
 SCF Done:  E(RB3LYP) =  -382.302649815     A.U. after    8 cycles
 SCF Done:  E(RB3LYP) =  -382.304025907     A.U. after   14 cycles
 SCF Done:  E(RB3LYP) =  -382.306860542     A.U. after   12 cycles
 SCF Done:  E(RB3LYP) =  -382.306945768     A.U. after   11 cycles
 SCF Done:  E(RB3LYP) =  -382.306946872     A.U. after    8 cycles
    -- Stationary point found.
 SCF Done:  E(RB3LYP) =  -382.305853506     A.U. after   14 cycles
 SCF Done:  E(RB3LYP) =  -382.308117144     A.U. after   12 cycles
 SCF Done:  E(RB3LYP) =  -382.308250163     A.U. after   11 cycles
 SCF Done:  E(RB3LYP) =  -382.308259560     A.U. after   10 cycles
 Optimization completed.
    -- Stationary point found.

                         Standard orientation:
 ---------------------------------------------------------------------
 Center     Atomic      Atomic             Coordinates (Angstroms)
 Number     Number       Type             X           Y           Z
 ---------------------------------------------------------------------
      1          6           0        1.415245    0.241887    0.000199
      2          6           0        0.899630   -1.082388    0.000322
      3          6           0       -0.482965   -1.315865    0.000085
      4          6           0       -1.415149   -0.241366   -0.000278
      5          6           0       -0.899343    1.082906    0.000000
      6          1           0        1.590051   -1.935724    0.000379
      7          1           0       -0.859277   -2.348060    0.000089
      8          1           0       -1.589620    1.936236    0.000039
      9          6           0       -2.881274   -0.547208    0.000046
     10          6           0       -3.886549    0.345346   -0.000224
     11          1           0       -3.716033    1.427983   -0.000762
     12          1           0       -3.122233   -1.620917    0.000976
     13          1           0       -4.933869    0.021713   -0.000218
     14          6           0        2.881299    0.546906    0.000135
     15          1           0        3.122915    1.620495    0.000624
     16          6           0        3.885882   -0.346349   -0.000470
     17          1           0        3.714768   -1.428907   -0.001174
     18          1           0        4.933417   -0.023258   -0.000206
     19          6           0        0.483257    1.316437    0.000177
     20          1           0        0.859677    2.348600    0.000304
 ---------------------------------------------------------------------

 The electronic state is 1-A.
 Alpha  occ. eigenvalues --  -10.02022 -10.02017 -10.00812 -10.00811 -10.00680
 Alpha  occ. eigenvalues --  -10.00678 -10.00606 -10.00592  -9.99233  -9.99233
 Alpha  occ. eigenvalues --   -0.80951  -0.75398  -0.71796  -0.69978  -0.66752
 Alpha  occ. eigenvalues --   -0.58869  -0.55893  -0.53167  -0.51017  -0.45744
 Alpha  occ. eigenvalues --   -0.43935  -0.41061  -0.39795  -0.39607  -0.37396
 Alpha  occ. eigenvalues --   -0.35115  -0.34729  -0.32451  -0.31126  -0.29280
 Alpha  occ. eigenvalues --   -0.28745  -0.26355  -0.21244  -0.19505  -0.15309
 Alpha virt. eigenvalues --    0.03741   0.09036   0.11060   0.18220   0.27253
 Alpha virt. eigenvalues --    0.33223   0.34074   0.37937   0.38146   0.41098
 Alpha virt. eigenvalues --    0.41198   0.42675   0.43965   0.45274   0.47823

 Mulliken charges:
               1
     1  C   -0.004519
     2  C   -0.077140
     3  C   -0.076603
     4  C   -0.004513
     5  C   -0.077160
     6  H    0.079213
     7  H    0.077685
     8  H    0.079221
     9  C   -0.076371
    10  C   -0.154829
    11  H    0.076327
    12  H    0.076883
    13  H    0.079356
    14  C   -0.076379
    15  H    0.076877
    16  C   -0.154809
    17  H    0.076327
    18  H    0.079342
    19  C   -0.076614
    20  H    0.077705
 Sum of Mulliken charges =   0.00000

 Dipole moment (field-independent basis, Debye):
    X=              0.0001    Y=             -0.0002    Z=              0.0002  Tot=              0.0003
 Quadrupole moment (field-independent basis, Debye-Ang):
   XX=            -50.7127   YY=            -50.2248   ZZ=            -58.6254
   XY=              0.0691   XZ=              0.0000   YZ=             -0.0001

 Normal termination of Gaussian 09 at Mon Sep  1 17:22:12 2014.
