 Gaussian 09, Revision D.01,
 Gaussian 09:  ES64L-G09RevD.01 24-Apr-2013

 ------------------------------------------------------------
 #p gfinput iop(6/7=3) iop(3/33=1) #B3LYP/Gen pseudo=read #SP
 ------------------------------------------------------------

 -------------------------------
 Mo4OCl4 restricted single point
 -------------------------------
 Symbolic Z-matrix:
 Charge = -2 Multiplicity = 1

                         Standard orientation:
 ---------------------------------------------------------------------
 Center     Atomic      Atomic             Coordinates (Angstroms)
 Number     Number       Type             X           Y           Z
 ---------------------------------------------------------------------
      1         42           0        0.000006    0.295685    0.000000
      2          8           0        0.000004    1.985379    0.000000
      3         17           0        2.420224   -0.416209    0.000000
      4         17           0        0.000004   -0.416204    2.420236
      5         17           0       -2.420249   -0.416198    0.000000
      6         17           0        0.000004   -0.416204   -2.420236
 ---------------------------------------------------------------------

 SCF Done:  E(RB3LYP) =  -202.713622575     A.U. after   13 cycles

 The electronic state is 1-A'.
 Alpha  occ. eigenvalues --  -18.86921  -2.22101  -1.28648  -1.22271  -1.22271
 Alpha  occ. eigenvalues --   -0.61059  -0.41378  -0.40233  -0.40233  -0.39988
 Alpha  occ. eigenvalues --   -0.09007  -0.07583  -0.07583  -0.00906  -0.00539
 Alpha  occ. eigenvalues --    0.00051   0.01518   0.01518   0.02863   0.04793
 Alpha  occ. eigenvalues --    0.04793   0.05701   0.06030   0.06030   0.07848
 Alpha  occ. eigenvalues --    0.13389
 Alpha virt. eigenvalues --    0.24819   0.24819   0.29040   0.29322   0.36102
 Alpha virt. eigenvalues --    0.44389   0.45853   0.45853   1.24955   1.24955
 Alpha virt. eigenvalues --    1.26151   1.56996   2.07039   2.07091   2.08446

 Mulliken charges:
               1
     1  Mo   0.623319
     2  O   -0.466095
     3  Cl  -0.539303
     4  Cl  -0.539306
     5  Cl  -0.539310
     6  Cl  -0.539306
 Sum of Mulliken charges =  -2.00000

 Dipole moment (field-independent basis, Debye):
    X=              0.0001    Y=              1.0673    Z=              0.0000  Tot=              1.0673
 Quadrupole moment (field-independent basis, Debye-Ang):
   XX=           -111.1788   YY=            -87.6796   ZZ=           -111.1788
   XY=              0.0000   XZ=              0.0000   YZ=              0.0000

 Normal termination of Gaussian 09 at Wed Feb 19 07:09:42 2014.
