 Gaussian 09, Revision A.02,
 Gaussian 09:  EM64M-G09RevA.02 11-Jun-2009

 --------------------------------
 #p hf/sto-3g polar symmetry=none
 --------------------------------

 --------------------------------
 tryptophan static polarizability
 --------------------------------
 Symbolic Z-matrix:
 Charge =  0 Multiplicity = 1

                          Input orientation:
 ---------------------------------------------------------------------
 Center     Atomic      Atomic             Coordinates (Angstroms)
 Number     Number       Type             X           Y           Z
 ---------------------------------------------------------------------
      1          7           0       -0.069983    0.332199    0.282128
      2          6           0        1.372804    0.097071   -0.012959
      3          6           0        2.096928   -0.052359    1.368265
      4          8           0        3.138249   -0.656368    1.538016
      5          6           0        1.952966    1.313614   -0.795602
      6          1           0        1.844273    2.205061   -0.180163
      7          1           0        1.345590    1.459494   -1.688569
      8          6           0        3.405365    1.127061   -1.191808
      9          6           0        4.484525    1.623504   -0.559892
     10          7           0        5.650909    1.237933   -1.228461
     11          1           0        6.600931    1.411235   -0.902863
     12          6           0        5.292162    0.435627   -2.313162
     13          6           0        3.894202    0.355800   -2.326332
     14          6           0        3.265917   -0.383261   -3.343131
     15          1           0        2.186431   -0.457706   -3.381592
     16          6           0        4.038176   -1.008751   -4.287099
     17          1           0        3.569689   -1.582476   -5.075561
     18          6           0        5.444516   -0.919487   -4.251900
     19          1           0        6.022993   -1.427797   -5.013001
     20          6           0        6.086958   -0.202404   -3.276770
     21          1           0        7.165665   -0.128776   -3.245865
     22          1           0        4.545762    2.242531    0.325398
     23          1           0       -0.515978    0.747891   -0.548766
     24          1           0        1.542053   -0.814394   -0.593546
     25          1           0       -0.530228   -0.582399    0.408451
     26          8           0        1.457585    0.599689    2.409350
     27          1           0        0.599002    0.884242    2.004783
 ---------------------------------------------------------------------

 SCF Done:  E(RHF) =  -673.590571157     A.U. after   15 cycles

 Alpha  occ. eigenvalues --  -20.26900 -20.24228 -15.38972 -15.34543 -11.14817
 Alpha  occ. eigenvalues --  -11.09847 -11.06807 -11.06515 -11.06336 -11.02540
 Alpha  occ. eigenvalues --  -11.02527 -11.02391 -11.01604 -11.01492 -11.01155
 Alpha  occ. eigenvalues --   -1.34768  -1.25784  -1.21999  -1.15379  -1.07455
 Alpha  occ. eigenvalues --   -1.02552  -0.95927  -0.93678  -0.91334  -0.83764
 Alpha  occ. eigenvalues --   -0.78305  -0.74937  -0.71060  -0.69263  -0.66916
 Alpha  occ. eigenvalues --   -0.64839  -0.61689  -0.60232  -0.59836  -0.58076
 Alpha  occ. eigenvalues --   -0.55646  -0.54281  -0.53686  -0.52409  -0.51774
 Alpha  occ. eigenvalues --   -0.49793  -0.48716  -0.47877  -0.45973  -0.44463
 Alpha  occ. eigenvalues --   -0.43848  -0.41669  -0.41391  -0.36971  -0.32853
 Alpha  occ. eigenvalues --   -0.32562  -0.30674  -0.24259  -0.22567
 Alpha virt. eigenvalues --    0.24758   0.29519   0.31851   0.36944   0.52185
 Alpha virt. eigenvalues --    0.53360   0.56098   0.56857   0.57837   0.61258
 Alpha virt. eigenvalues --    0.61676   0.62656   0.64407   0.65306   0.67744

 Mulliken atomic charges:
              1
     1  N   -0.405350
     2  C    0.019228
     3  C    0.298919
     4  O   -0.260769
     5  C   -0.106000
     6  H    0.066640
     7  H    0.060788
     8  C   -0.035657
     9  C    0.043391
    10  N   -0.321558
    11  H    0.216300
    12  C    0.105706
    13  C   -0.023661
    14  C   -0.064892
    15  H    0.055242
    16  C   -0.075176
    17  H    0.056995
    18  C   -0.059357
    19  H    0.060758
    20  C   -0.082603
    21  H    0.061584
    22  H    0.077314
    23  H    0.163263
    24  H    0.065997
    25  H    0.161111
    26  O   -0.312238
    27  H    0.234025
 Sum of Mulliken atomic charges =   0.00000

 Dipole moment (field-independent basis, Debye):
    X=             -1.2075    Y=              0.9547    Z=             -2.2316  Tot=              2.7110
 Quadrupole moment (field-independent basis, Debye-Ang):
   XX=            -71.1304   YY=            -79.5855   ZZ=            -89.9284
   XY=              8.1630   XZ=             -4.0495   YZ=              1.8134

  Exact polarizability:  95.115  -2.278  49.996  -3.776  30.419  77.261
 Approx polarizability:  91.811  -3.250  46.804   2.070  31.251  69.674

 Normal termination of Gaussian 09 at Sun Aug 21 21:58:33 2016.
