 Gaussian 09, Revision A.02,
 Gaussian 09:  EM64M-G09RevA.02 11-Jun-2009

 ----------------------
 #n B3LYP/6-31G(d) Scan
 ----------------------

 -----
 Title
 -----
 Symbolic Z-matrix:
 Charge =  0 Multiplicity = 1

 SCF Done:  E(RB3LYP) =  -76.3910909407     A.U. after    9 cycles

 The electronic state is 1-A1.
 Alpha  occ. eigenvalues --  -19.13198  -1.04621  -0.51526  -0.40548  -0.30084
 Alpha virt. eigenvalues --    0.07388   0.17090   0.75987   0.87834   0.88751
 Alpha virt. eigenvalues --    0.99759   1.08154   1.24989   1.67931   1.74380
 Alpha virt. eigenvalues --    1.75083   2.41552   2.63103   3.55718

 Mulliken atomic charges:
              1
     1  O   -0.760774
     2  H    0.380387
     3  H    0.380387
 Sum of Mulliken atomic charges =   0.00000

 Dipole moment (field-independent basis, Debye):
    X=              0.0000    Y=              0.0000    Z=             -2.2617  Tot=              2.2617
 Quadrupole moment (field-independent basis, Debye-Ang):
   XX=             -7.0722   YY=             -4.9337   ZZ=             -5.6281
   XY=              0.0000   XZ=              0.0000   YZ=              0.0000

 SCF Done:  E(RB3LYP) =  -76.3970734942     A.U. after    9 cycles
 SCF Done:  E(RB3LYP) =  -76.4009916075     A.U. after    9 cycles
 SCF Done:  E(RB3LYP) =  -76.4031099558     A.U. after    9 cycles
 SCF Done:  E(RB3LYP) =  -76.4036600350     A.U. after    9 cycles
 SCF Done:  E(RB3LYP) =  -76.4028453660     A.U. after    9 cycles
 SCF Done:  E(RB3LYP) =  -76.3953158578     A.U. after   10 cycles
 SCF Done:  E(RB3LYP) =  -76.4010172582     A.U. after    9 cycles
 SCF Done:  E(RB3LYP) =  -76.4046636834     A.U. after    9 cycles
 SCF Done:  E(RB3LYP) =  -76.4065199005     A.U. after    9 cycles
 SCF Done:  E(RB3LYP) =  -76.4073822150     A.U. after    9 cycles
 SCF Done:  E(RB3LYP) =  -76.4087871369     A.U. after    9 cycles
 SCF Done:  E(RB3LYP) =  -76.4086507392     A.U. after    9 cycles
 SCF Done:  E(RB3LYP) =  -76.4071773743     A.U. after    9 cycles
 SCF Done:  E(RB3LYP) =  -76.3986942893     A.U. after   10 cycles
 SCF Done:  E(RB3LYP) =  -76.4036981089     A.U. after    9 cycles
 SCF Done:  E(RB3LYP) =  -76.4066681448     A.U. after    8 cycles
 SCF Done:  E(RB3LYP) =  -76.4078711988     A.U. after    9 cycles
 SCF Done:  E(RB3LYP) =  -76.4075410858     A.U. after    9 cycles

                         Standard orientation:
 ---------------------------------------------------------------------
 Center     Atomic      Atomic             Coordinates (Angstroms)
 Number     Number       Type             X           Y           Z
 ---------------------------------------------------------------------
      1          8           0        0.000000    0.000000    0.114715
      2          1           0        0.000000    0.819152   -0.458861
      3          1           0        0.000000   -0.819152   -0.458861
 ---------------------------------------------------------------------

 SCF Done:  E(RB3LYP) =  -76.4058827960     A.U. after    9 cycles
 Normal termination of Gaussian 09 at Fri Jun 10 00:30:29 2016.
