 Gaussian 09, Revision D.01,
 Gaussian 09:  EM64L-G09RevD.01 24-Apr-2013

 ------------------------------------------------
 #P MP2/STO-3G Density Pop=(Full,NaturalOrbitals)
 ------------------------------------------------

 -----
 Water
 -----
 Symbolic Z-matrix:
 Charge =  0 Multiplicity = 1

                         Standard orientation:
 ---------------------------------------------------------------------
 Center     Atomic      Atomic             Coordinates (Angstroms)
 Number     Number       Type             X           Y           Z
 ---------------------------------------------------------------------
      1          8           0        0.000000    0.000000    0.119159
      2          1           0        0.000000    0.790649   -0.476637
      3          1           0        0.000000   -0.790649   -0.476637
 ---------------------------------------------------------------------

 SCF Done:  E(RHF) =  -74.9643287913     A.U. after    7 cycles
 E2 =    -0.3795333648D-01 EUMP2 =    -0.75002282127785D+02

 Mulliken charges:
               1
     1  O   -0.319889
     2  H    0.159944
     3  H    0.159944
 Sum of Mulliken charges =   0.00000

 Dipole moment (field-independent basis, Debye):
    X=              0.0000    Y=              0.0000    Z=             -1.5994  Tot=              1.5994
 Quadrupole moment (field-independent basis, Debye-Ang):
   XX=             -6.1302   YY=             -4.3881   ZZ=             -5.4516
   XY=              0.0000   XZ=              0.0000   YZ=              0.0000

 Normal termination of Gaussian 09 at Wed Feb 19 07:06:53 2014.
