 Output coordinates in angstroms (scale by  1.889725989 to convert to a.u.)

  No.       Tag          Charge          X              Y              Z
 ---- ---------------- ---------- -------------- -------------- --------------
    1 C                    6.0000     0.00000000     0.00000000     0.00000000

         Total SCF energy =    -37.604596387529

 Vector    2  Occ=2.000000D+00  E=-7.255323D-01

 Vector    3  Occ=2.000000D+00  E=-3.583778D-01

 Vector    4  Occ=0.000000D+00  E= 1.855930D-02

 Vector    5  Occ=0.000000D+00  E= 1.855930D-02

 Vector    6  Occ=0.000000D+00  E= 4.854699D-02

 Vector    7  Occ=0.000000D+00  E= 7.943320D-02

 Vector    8  Occ=0.000000D+00  E= 9.506261D-02

 Vector    9  Occ=0.000000D+00  E= 9.506261D-02

 Vector   10  Occ=0.000000D+00  E= 2.075448D-01

 Vector   11  Occ=0.000000D+00  E= 2.193480D-01

 Vector   12  Occ=0.000000D+00  E= 2.193480D-01

 Vector   13  Occ=0.000000D+00  E= 2.278086D-01

 Vector   14  Occ=0.000000D+00  E= 2.278086D-01

 Vector   15  Occ=0.000000D+00  E= 2.333995D-01

 Vector   16  Occ=0.000000D+00  E= 3.090704D-01

 Vector   17  Occ=0.000000D+00  E= 3.237123D-01

 Vector   18  Occ=0.000000D+00  E= 3.237123D-01

 Vector   19  Occ=0.000000D+00  E= 5.318156D-01

       Multipole analysis of the density wrt the origin
       ------------------------------------------------

     L   x y z        total         open         nuclear
     -   - - -        -----         ----         -------
     0   0 0 0      0.000000      0.000000      6.000000

     1   1 0 0      0.000000      0.000000      0.000000
     1   0 1 0      0.000000      0.000000      0.000000
     1   0 0 1      0.000000      0.000000      0.000000

     2   2 0 0     -4.443384      0.000000      0.000000
     2   1 1 0      0.825819      0.000000      0.000000
     2   1 0 1     -1.049065      0.000000      0.000000
     2   0 2 0     -4.781994      0.000000      0.000000
     2   0 1 1      1.285958      0.000000      0.000000

 Total times  cpu:        5.5s     wall:       10.7s
