 Output coordinates in angstroms (scale by  1.889725989 to convert to a.u.)

  No.       Tag          Charge          X              Y              Z
 ---- ---------------- ---------- -------------- -------------- --------------
    1 C                    6.0000     0.23680554     1.41416660     0.00000000
    2 C                    6.0000    -0.23680554    -1.41416660     0.00000000
    3 C                    6.0000     1.31675086     0.48901061     0.00000000
    4 C                    6.0000    -1.31675086    -0.48901061     0.00000000
    5 C                    6.0000     1.08679847    -0.89447642     0.00000000
    6 C                    6.0000    -1.08679847     0.89447642     0.00000000
    7 H                    1.0000     2.34780221     0.86863451     0.00000000
    8 H                    1.0000    -2.34780221    -0.86863451     0.00000000
    9 H                    1.0000     1.93764188    -1.58693865     0.00000000
   10 H                    1.0000    -1.93764188     1.58693865     0.00000000
   11 C                    6.0000    -0.53450789    -2.88212824     0.00000000
   12 C                    6.0000     0.53450789     2.88212824     0.00000000
   13 H                    1.0000    -1.60655769    -3.13289308     0.00000000
   14 H                    1.0000     1.60655769     3.13289308     0.00000000
   15 C                    6.0000     0.36419263    -3.88177971     0.00000000
   16 C                    6.0000    -0.36419263     3.88177971     0.00000000
   17 H                    1.0000     1.44522900    -3.70144241     0.00000000
   18 H                    1.0000    -1.44522900     3.70144241     0.00000000
   19 H                    1.0000     0.04815351    -4.93192286     0.00000000
   20 H                    1.0000    -0.04815351     4.93192286     0.00000000

         Total SCF energy =   -379.768962983253

 Vector    1  Occ=2.000000D+00  E=-1.104059D+01  Symmetry=bu

 Vector    2  Occ=2.000000D+00  E=-1.104052D+01  Symmetry=ag

 Vector    3  Occ=2.000000D+00  E=-1.103159D+01  Symmetry=bu

 Vector    4  Occ=2.000000D+00  E=-1.103159D+01  Symmetry=ag

 Vector    5  Occ=2.000000D+00  E=-1.102895D+01  Symmetry=bu

 Vector    6  Occ=2.000000D+00  E=-1.102882D+01  Symmetry=ag

 Vector    7  Occ=2.000000D+00  E=-1.102861D+01  Symmetry=bu

 Vector    8  Occ=2.000000D+00  E=-1.102859D+01  Symmetry=ag

 Vector    9  Occ=2.000000D+00  E=-1.101748D+01  Symmetry=bu

 Vector   10  Occ=2.000000D+00  E=-1.101748D+01  Symmetry=ag

 Vector   11  Occ=2.000000D+00  E=-1.090298D+00  Symmetry=ag

 Vector   12  Occ=2.000000D+00  E=-1.020253D+00  Symmetry=bu

 Vector   13  Occ=2.000000D+00  E=-9.749252D-01  Symmetry=ag

 Vector   14  Occ=2.000000D+00  E=-9.503010D-01  Symmetry=bu

 Vector   15  Occ=2.000000D+00  E=-9.096342D-01  Symmetry=bu

 Vector   16  Occ=2.000000D+00  E=-7.998825D-01  Symmetry=ag

 Vector   17  Occ=2.000000D+00  E=-7.628255D-01  Symmetry=ag

 Vector   18  Occ=2.000000D+00  E=-7.276316D-01  Symmetry=bu

 Vector   19  Occ=2.000000D+00  E=-6.967762D-01  Symmetry=ag

 Vector   20  Occ=2.000000D+00  E=-6.280516D-01  Symmetry=ag

 Vector   21  Occ=2.000000D+00  E=-6.056775D-01  Symmetry=bu

 Vector   22  Occ=2.000000D+00  E=-5.729414D-01  Symmetry=bu

 Vector   23  Occ=2.000000D+00  E=-5.536030D-01  Symmetry=bu

 Vector   24  Occ=2.000000D+00  E=-5.531661D-01  Symmetry=ag

 Vector   25  Occ=2.000000D+00  E=-5.253585D-01  Symmetry=bu

 Vector   26  Occ=2.000000D+00  E=-4.966981D-01  Symmetry=bu

 Vector   27  Occ=2.000000D+00  E=-4.925275D-01  Symmetry=ag

 Vector   28  Occ=2.000000D+00  E=-4.637293D-01  Symmetry=au

 Vector   29  Occ=2.000000D+00  E=-4.464305D-01  Symmetry=bu

 Vector   30  Occ=2.000000D+00  E=-4.216538D-01  Symmetry=ag

 Vector   31  Occ=2.000000D+00  E=-4.156206D-01  Symmetry=ag

 Vector   32  Occ=2.000000D+00  E=-3.769629D-01  Symmetry=bg

 Vector   33  Occ=2.000000D+00  E=-3.151266D-01  Symmetry=au

 Vector   34  Occ=2.000000D+00  E=-2.783629D-01  Symmetry=bg

 Vector   35  Occ=2.000000D+00  E=-2.221891D-01  Symmetry=bg

 Vector   36  Occ=0.000000D+00  E= 1.989934D-01  Symmetry=au

 Vector   37  Occ=0.000000D+00  E= 2.685160D-01  Symmetry=au

 Vector   38  Occ=0.000000D+00  E= 3.088253D-01  Symmetry=bg

 Vector   39  Occ=0.000000D+00  E= 3.970773D-01  Symmetry=au

 Vector   40  Occ=0.000000D+00  E= 5.217581D-01  Symmetry=bg

 Vector   41  Occ=0.000000D+00  E= 5.650170D-01  Symmetry=ag

 Vector   42  Occ=0.000000D+00  E= 5.755619D-01  Symmetry=bu

 Vector   43  Occ=0.000000D+00  E= 6.215610D-01  Symmetry=ag

 Vector   44  Occ=0.000000D+00  E= 6.258005D-01  Symmetry=bu

 Vector   45  Occ=0.000000D+00  E= 6.582332D-01  Symmetry=ag

 Vector   46  Occ=0.000000D+00  E= 6.593961D-01  Symmetry=bu

 Vector   47  Occ=0.000000D+00  E= 6.771784D-01  Symmetry=bu

 Vector   48  Occ=0.000000D+00  E= 6.941876D-01  Symmetry=ag

 Vector   49  Occ=0.000000D+00  E= 7.067087D-01  Symmetry=bu

 Vector   50  Occ=0.000000D+00  E= 7.401368D-01  Symmetry=ag

 Vector   51  Occ=0.000000D+00  E= 8.022260D-01  Symmetry=ag

 Vector   52  Occ=0.000000D+00  E= 8.256564D-01  Symmetry=bu

 Vector   53  Occ=0.000000D+00  E= 8.606162D-01  Symmetry=ag

 Vector   54  Occ=0.000000D+00  E= 8.877589D-01  Symmetry=bu

 Vector   55  Occ=0.000000D+00  E= 9.210090D-01  Symmetry=bu

 Vector   56  Occ=0.000000D+00  E= 9.399492D-01  Symmetry=ag

 Vector   57  Occ=0.000000D+00  E= 9.902863D-01  Symmetry=ag

 Vector   58  Occ=0.000000D+00  E= 1.027265D+00  Symmetry=bu

 Vector   59  Occ=0.000000D+00  E= 1.107701D+00  Symmetry=ag

 Vector   60  Occ=0.000000D+00  E= 1.124937D+00  Symmetry=bu

       Multipole analysis of the density wrt the origin
       ------------------------------------------------

     L   x y z        total         open         nuclear
     -   - - -        -----         ----         -------
     0   0 0 0     -0.000000      0.000000     70.000000

     1   1 0 0      0.000000      0.000000      0.000000
     1   0 1 0     -0.000000      0.000000      0.000000
     1   0 0 1     -0.000000      0.000000      0.000000

     2   2 0 0    -38.360851      0.000000    244.795872
     2   1 1 0      0.065319      0.000000     -5.631027
     2   1 0 1      0.000000      0.000000      0.000000
     2   0 2 0    -39.005547      0.000000   1496.963300
     2   0 1 1     -0.000000      0.000000      0.000000

 Total times  cpu:        1.9s     wall:        2.3s
