                         Program Version 4.0.0.2 - RELEASE -
|  1> ! TightOpt STO-3G RIJCOSX AutoAux
|  2> ! AnFreq
|  3>
|  4> * xyz 1 2
|  5>     O   0   0  -1
|  6>     C   0   0   0
|  7>     O   0   0   1
|  8> *
|  9>
| 10>                          ****END OF INPUT****
 Total Charge           Charge          ....    1
 Multiplicity           Mult            ....    2
 Number of Electrons    NEL             ....   21
FINAL SINGLE POINT ENERGY      -184.419155403621
FINAL SINGLE POINT ENERGY      -184.681492345074
FINAL SINGLE POINT ENERGY      -184.737520568473
FINAL SINGLE POINT ENERGY      -184.755049236406
FINAL SINGLE POINT ENERGY      -184.757641731567
FINAL SINGLE POINT ENERGY      -184.757768453825
FINAL SINGLE POINT ENERGY      -184.757765118843
                    ***********************HURRAY********************

CARTESIAN COORDINATES (ANGSTROEM)
---------------------------------
  O     -0.000000    0.000000   -1.252682
  C      0.000000   -0.000000   -0.000000
  O     -0.000000    0.000000    1.252682

 Multiplicity           Mult            ....    2
 Number of Electrons    NEL             ....   21
 Basis Dimension        Dim             ....   15

ORBITAL ENERGIES
----------------
                 SPIN UP ORBITALS
  NO   OCC          E(Eh)            E(eV)
   0   1.0000     -20.954320      -570.1960
   1   1.0000     -20.954064      -570.1891
   2   1.0000     -11.691543      -318.1431
   3   1.0000      -1.876585       -51.0645
   4   1.0000      -1.842916       -50.1483
   5   1.0000      -1.122847       -30.5542
   6   1.0000      -1.071630       -29.1605
   7   1.0000      -1.042913       -28.3791
   8   1.0000      -1.022841       -27.8329
   9   1.0000      -0.981050       -26.6957
  10   1.0000      -0.898860       -24.4592
  11   0.0000      -0.129500        -3.5239
  12   0.0000      -0.120154        -3.2695
  13   0.0000       0.020537         0.5588
  14   0.0000       0.664428        18.0800

                 SPIN DOWN ORBITALS
  NO   OCC          E(Eh)            E(eV)
   0   1.0000     -20.928394      -569.4905
   1   1.0000     -20.928182      -569.4848
   2   1.0000     -11.715643      -318.7989
   3   1.0000      -1.786951       -48.6254
   4   1.0000      -1.711941       -46.5843
   5   1.0000      -1.095188       -29.8016
   6   1.0000      -1.002113       -27.2689
   7   1.0000      -0.981963       -26.7206
   8   1.0000      -0.927945       -25.2507
   9   1.0000      -0.811562       -22.0837
  10   0.0000      -0.230455        -6.2710
  11   0.0000      -0.161640        -4.3984
  12   0.0000      -0.009881        -0.2689
  13   0.0000       0.015120         0.4114
  14   0.0000       0.682073        18.5601

MULLIKEN ATOMIC CHARGES AND SPIN POPULATIONS
--------------------------------------------
   0 O :    0.193399    0.976399
   1 C :    0.613202   -0.952798
   2 O :    0.193399    0.976399
Sum of atomic charges         :    1.0000000

LOEWDIN ATOMIC CHARGES AND SPIN POPULATIONS
-------------------------------------------
   0 O :    0.260140    0.935777
   1 C :    0.479720   -0.871554
   2 O :    0.260140    0.935777

  Mayer bond orders larger than 0.1
B(  0-O ,  1-C ) :   1.7057 B(  0-O ,  2-O ) :   0.1693 B(  1-C ,  2-O ) :   1.7057

FINAL SINGLE POINT ENERGY      -184.757766163554

DIPOLE MOMENT
-------------
                                X             Y             Z
Electronic contribution:      0.00000      -0.00000      -0.00000
Nuclear contribution   :     -0.00000       0.00000       0.00000
                        -----------------------------------------
Total Dipole Moment    :      0.00000      -0.00000      -0.00000
                        -----------------------------------------
Magnitude (a.u.)       :      0.00000
Magnitude (Debye)      :      0.00000

VIBRATIONAL FREQUENCIES
-----------------------

   0:         0.00 cm**-1
   1:         0.00 cm**-1
   2:         0.00 cm**-1
   3:         0.00 cm**-1
   4:         0.00 cm**-1
   5:       289.50 cm**-1
   6:       458.10 cm**-1
   7:      1114.50 cm**-1
   8:      1142.05 cm**-1

IR SPECTRUM
-----------

 Mode    freq (cm**-1)   T**2         TX         TY         TZ
-------------------------------------------------------------------
   5:       289.50   14.331335  (  0.007890   3.785667   0.000000)
   6:       458.10   32.254570  (  5.679298  -0.012019   0.000000)
   7:      1114.50    0.000000  (  0.000000   0.000000  -0.000009)
   8:      1142.05    0.031390  (  0.000000   0.000001   0.177174)

--------------------------
THERMOCHEMISTRY AT 298.15K
--------------------------

Temperature         ... 298.15 K
Pressure            ... 1.00 atm
Total Mass          ... 44.01 AMU
The molecule is recognized as being linear

Throughout the following assumptions are being made:
  (1) The electronic state is orbitally nondegenerate
      but the spin degeneracy is treated
  (2) There are no thermally accessible electronically excited states
  (3) Hindered rotations indicated by low frequency modes are not
      treated as such but are treated as vibrations and this may
      cause some error
  (4) All equations used are the standard statistical mechanics
      equations for an ideal gas
  (5) All vibrations are strictly harmonic

freq.     289.50  E(vib)   ...       0.27
freq.     458.10  E(vib)   ...       0.16
freq.    1114.50  E(vib)   ...       0.01
freq.    1142.05  E(vib)   ...       0.01

------------
INNER ENERGY
------------

The inner energy is: U= E(el) + E(ZPE) + E(vib) + E(rot) + E(trans)
    E(el)   - is the total energy from the electronic structure calculation
              = E(kin-el) + E(nuc-el) + E(el-el) + E(nuc-nuc)
    E(ZPE)  - the the zero temperature vibrational energy from the frequency calculation
    E(vib)  - the the finite temperature correction to E(ZPE) due to population
              of excited vibrational states
    E(rot)  - is the rotational thermal energy
    E(trans)- is the translational thermal energy

Summary of contributions to the inner energy U:
Electronic energy                ...   -184.75776616 Eh
Zero point energy                ...      0.00684398 Eh       4.29 kcal/mol
Thermal vibrational correction   ...      0.00073515 Eh       0.46 kcal/mol
Thermal rotational correction    ...      0.00094418 Eh       0.59 kcal/mol
Thermal translational correction ...      0.00141627 Eh       0.89 kcal/mol
-----------------------------------------------------------------------
Total thermal energy                   -184.74782658 Eh

Summary of corrections to the electronic energy:
(perhaps to be used in another calculation)
Total thermal correction                  0.00309561 Eh       1.94 kcal/mol
Non-thermal (ZPE) correction              0.00684398 Eh       4.29 kcal/mol
-----------------------------------------------------------------------
Total correction                          0.00993959 Eh       6.24 kcal/mol

--------
ENTHALPY
--------

The enthalpy is H = U + kB*T
                kB is Boltzmann's constant
Total free energy                 ...   -184.74782658 Eh
Thermal Enthalpy correction       ...      0.00094421 Eh       0.59 kcal/mol
-----------------------------------------------------------------------
Total Enthalpy                    ...   -184.74688237 Eh

Vibrational entropy computed according to the QRRHO of S. Grimme
Chem.Eur.J. 2012 18 9955

check

-------
ENTROPY
-------

The entropy contributions are T*S = T*(S(el)+S(vib)+S(rot)+S(trans)
     S(el)   - electronic entropy
     S(vib)  - vibrational entropy
     S(rot)  - rotational entropy
     S(trans)- translational entropy
The entropies will be listed as mutliplied by the temperature to get
units of energy

Electronic entropy                ...      0.00065446 Eh      0.41 kcal/mol
Vibrational entropy               ...      0.00112403 Eh      0.71 kcal/mol
Rotational entropy                ...      0.00635633 Eh      3.99 kcal/mol
Translational entropy             ...      0.01770880 Eh     11.11 kcal/mol
-----------------------------------------------------------------------
Final entropy term                ...      0.02584362 Eh     16.22 kcal/mol

CAUTION: The rotational entropy is not quite correctly treated here
         because it includes a symmetry number that is not yet correctly
         implemented in ORCA!
For a linear molecule the correct rotational entropy is:
    S(rot) = R*(ln(qrot/sn)+1)
    R    = 8.31441 J/mol/K = 1.987191683e-3 kcal/mol/K
    qrot =  617.2370489
    sn is the rotational symmetry number. We have assumed 2 here
       if it is different for your molecule then you should correct
       the printed rotational entropy by manually evaluating the equation
       as given above

For convenience we print out the resulting values for sn=1 - 12:
 sn= 1  qrot/sn=     617.2370 T*S(rot)=     4.40 kcal/mol T*S(tot)=    16.63 kcal/mol
 sn= 2  qrot/sn=     308.6185 T*S(rot)=     3.99 kcal/mol T*S(tot)=    16.22 kcal/mol
 sn= 3  qrot/sn=     205.7457 T*S(rot)=     3.75 kcal/mol T*S(tot)=    15.98 kcal/mol
 sn= 4  qrot/sn=     154.3093 T*S(rot)=     3.58 kcal/mol T*S(tot)=    15.81 kcal/mol
 sn= 5  qrot/sn=     123.4474 T*S(rot)=     3.45 kcal/mol T*S(tot)=    15.67 kcal/mol
 sn= 6  qrot/sn=     102.8728 T*S(rot)=     3.34 kcal/mol T*S(tot)=    15.57 kcal/mol
 sn= 7  qrot/sn=      88.1767 T*S(rot)=     3.25 kcal/mol T*S(tot)=    15.47 kcal/mol
 sn= 8  qrot/sn=      77.1546 T*S(rot)=     3.17 kcal/mol T*S(tot)=    15.40 kcal/mol
 sn= 9  qrot/sn=      68.5819 T*S(rot)=     3.10 kcal/mol T*S(tot)=    15.33 kcal/mol
 sn=10  qrot/sn=      61.7237 T*S(rot)=     3.04 kcal/mol T*S(tot)=    15.26 kcal/mol
 sn=11  qrot/sn=      56.1125 T*S(rot)=     2.98 kcal/mol T*S(tot)=    15.21 kcal/mol
 sn=12  qrot/sn=      51.4364 T*S(rot)=     2.93 kcal/mol T*S(tot)=    15.16 kcal/mol

-------------------
GIBBS FREE ENTHALPY
-------------------

The Gibbs free enthalpy is G = H - T*S

Total enthalpy                    ...   -184.74688237 Eh
Total entropy correction          ...     -0.02584362 Eh    -16.22 kcal/mol
-----------------------------------------------------------------------
Final Gibbs free enthalpy         ...   -184.77272599 Eh

For completeness - the Gibbs free enthalpy minus the electronic energy
G-E(el)                           ...     -0.01495982 Eh     -9.39 kcal/mol

                             ****ORCA TERMINATED NORMALLY****
TOTAL RUN TIME: 0 days 0 hours 0 minutes 24 seconds 219 msec
