                         Program Version 4.0.0.2 - RELEASE -
|  1> # Single point restricted B3LYP/sto-3g NMR calc
|  2> ! NMR B3LYP sto-3g
|  3>
|  4> * xyz 0 1
|  5>     C                  0.27867948   -1.36683162    0.00000000
|  6>     C                  1.32303041   -0.44173575    0.00000000
|  7>     C                  1.04434506    0.92484978    0.00000000
|  8>     C                 -0.27867948    1.36683162    0.00000000
|  9>     C                 -1.32303041    0.44173575    0.00000000
| 10>     C                 -1.04434506   -0.92484978    0.00000000
| 11>     H                  2.36595443   -0.79037726    0.00000000
| 12>     H                  1.86746094    1.65407997    0.00000000
| 13>     H                 -2.36595443    0.79037726    0.00000000
| 14>     H                 -1.86746094   -1.65407997    0.00000000
| 15>     C                 -0.58659169    2.87589931    0.00000000
| 16>     C                  0.36350188    3.80076420    0.00000000
| 17>     H                 -1.65647768    3.12394312    0.00000000
| 18>     H                  0.14429560    4.87693235    0.00000000
| 19>     H                  1.43338788    3.55272039    0.00000000
| 20>     C                  0.58659169   -2.87589931    0.00000000
| 21>     C                 -0.36350188   -3.80076420    0.00000000
| 22>     H                  1.65647768   -3.12394312    0.00000000
| 23>     H                 -0.14429560   -4.87693235    0.00000000
| 24>     H                 -1.43338788   -3.55272039    0.00000000
| 25> *
| 26>
| 27>                          ****END OF INPUT****

CARTESIAN COORDINATES (ANGSTROEM)
---------------------------------
  C      0.278679   -1.366832    0.000000
  C      1.323030   -0.441736    0.000000
  C      1.044345    0.924850    0.000000
  C     -0.278679    1.366832    0.000000
  C     -1.323030    0.441736    0.000000
  C     -1.044345   -0.924850    0.000000
  H      2.365954   -0.790377    0.000000
  H      1.867461    1.654080    0.000000
  H     -2.365954    0.790377    0.000000
  H     -1.867461   -1.654080    0.000000
  C     -0.586592    2.875899    0.000000
  C      0.363502    3.800764    0.000000
  H     -1.656478    3.123943    0.000000
  H      0.144296    4.876932    0.000000
  H      1.433388    3.552720    0.000000
  C      0.586592   -2.875899    0.000000
  C     -0.363502   -3.800764    0.000000
  H      1.656478   -3.123943    0.000000
  H     -0.144296   -4.876932    0.000000
  H     -1.433388   -3.552720    0.000000

 Total Charge           Charge          ....    0
 Multiplicity           Mult            ....    1
 Number of Electrons    NEL             ....   70
 Basis Dimension        Dim             ....   60

ORBITAL ENERGIES
----------------

  NO   OCC          E(Eh)            E(eV)
   0   2.0000     -10.013994      -272.4946
   1   2.0000     -10.013928      -272.4928
   2   2.0000     -10.003654      -272.2133
   3   2.0000     -10.003652      -272.2132
   4   2.0000     -10.002753      -272.1887
   5   2.0000     -10.002717      -272.1878
   6   2.0000     -10.001615      -272.1578
   7   2.0000     -10.001509      -272.1549
   8   2.0000      -9.987959      -271.7862
   9   2.0000      -9.987958      -271.7862
  10   2.0000      -0.814339       -22.1593
  11   2.0000      -0.751392       -20.4464
  12   2.0000      -0.716981       -19.5101
  13   2.0000      -0.700463       -19.0606
  14   2.0000      -0.666478       -18.1358
  15   2.0000      -0.581501       -15.8234
  16   2.0000      -0.556894       -15.1539
  17   2.0000      -0.528368       -14.3776
  18   2.0000      -0.508501       -13.8370
  19   2.0000      -0.458307       -12.4712
  20   2.0000      -0.434919       -11.8347
  21   2.0000      -0.406807       -11.0698
  22   2.0000      -0.395950       -10.7743
  23   2.0000      -0.393561       -10.7093
  24   2.0000      -0.371836       -10.1182
  25   2.0000      -0.354193        -9.6381
  26   2.0000      -0.345325        -9.3968
  27   2.0000      -0.326528        -8.8853
  28   2.0000      -0.301648        -8.2083
  29   2.0000      -0.291837        -7.9413
  30   2.0000      -0.277272        -7.5450
  31   2.0000      -0.259428        -7.0594
  32   2.0000      -0.212207        -5.7745
  33   2.0000      -0.193816        -5.2740
  34   2.0000      -0.156264        -4.2522
  35   0.0000       0.053306         1.4505
  36   0.0000       0.094509         2.5717
  37   0.0000       0.120245         3.2720
  38   0.0000       0.185200         5.0396
  39   0.0000       0.284056         7.7296

MULLIKEN ATOMIC CHARGES
-----------------------
   0 C :   -0.003994
   1 C :   -0.078797
   2 C :   -0.077155
   3 C :   -0.003994
   4 C :   -0.078797
   5 C :   -0.077155
   6 H :    0.078415
   7 H :    0.079488
   8 H :    0.078415
   9 H :    0.079488
  10 C :   -0.074849
  11 C :   -0.156198
  12 H :    0.078403
  13 H :    0.078194
  14 H :    0.076493
  15 C :   -0.074849
  16 C :   -0.156198
  17 H :    0.078403
  18 H :    0.078194
  19 H :    0.076493
Sum of atomic charges:   -0.0000000

LOEWDIN ATOMIC CHARGES
----------------------
   0 C :   -0.000197
   1 C :    0.063438
   2 C :    0.062913
   3 C :   -0.000197
   4 C :    0.063438
   5 C :    0.062913
   6 H :   -0.064866
   7 H :   -0.062687
   8 H :   -0.064866
   9 H :   -0.062687
  10 C :    0.072052
  11 C :    0.126854
  12 H :   -0.065320
  13 H :   -0.066146
  14 H :   -0.066040
  15 C :    0.072052
  16 C :    0.126854
  17 H :   -0.065320
  18 H :   -0.066146
  19 H :   -0.066040

  Mayer bond orders larger than 0.1
B(  0-C ,  1-C ) :   1.3849 B(  0-C ,  5-C ) :   1.3878 B(  0-C , 15-C ) :   1.0301
B(  1-C ,  2-C ) :   1.4506 B(  1-C ,  4-C ) :   0.1048 B(  1-C ,  6-H ) :   0.9612
B(  2-C ,  3-C ) :   1.3878 B(  2-C ,  5-C ) :   0.1093 B(  2-C ,  7-H ) :   0.9557
B(  3-C ,  4-C ) :   1.3849 B(  3-C , 10-C ) :   1.0301 B(  4-C ,  5-C ) :   1.4506
B(  4-C ,  8-H ) :   0.9612 B(  5-C ,  9-H ) :   0.9557 B( 10-C , 11-C ) :   1.9332
B( 10-C , 12-H ) :   0.9596 B( 11-C , 13-H ) :   0.9679 B( 11-C , 14-H ) :   0.9618
B( 15-C , 16-C ) :   1.9332 B( 15-C , 17-H ) :   0.9596 B( 16-C , 18-H ) :   0.9679
B( 16-C , 19-H ) :   0.9618

FINAL SINGLE POINT ENERGY      -382.042725588207

DIPOLE MOMENT
-------------
                                X             Y             Z
Electronic contribution:     -0.00000      -0.00000       0.00000
Nuclear contribution   :      0.00000       0.00000       0.00000
                        -----------------------------------------
Total Dipole Moment    :     -0.00000      -0.00000       0.00000
                        -----------------------------------------
Magnitude (a.u.)       :      0.00000
Magnitude (Debye)      :      0.00000

CHEMICAL SHIELDING SUMMARY (ppm)
--------------------------

  Nucleus  Element    Isotropic     Anisotropy
  -------  -------  ------------   ------------
      0       C          116.686        143.809
      1       C          122.158        130.692
      2       C          124.812        140.347
      3       C          116.686        143.809
      4       C          122.158        130.692
      5       C          124.812        140.347
      6       H           25.664          4.692
      7       H           25.126          6.237
      8       H           25.664          4.692
      9       H           25.126          6.237
     10       C          116.709        115.045
     11       C          131.553        123.944
     12       H           26.156          4.794
     13       H           27.276          5.224
     14       H           26.667          6.482
     15       C          116.709        115.045
     16       C          131.553        123.944
     17       H           26.156          4.794
     18       H           27.276          5.224
     19       H           26.667          6.482

                             ****ORCA TERMINATED NORMALLY****
TOTAL RUN TIME: 0 days 0 hours 0 minutes 47 seconds 90 msec
