                         Program Version 4.0.1 -  RELEASE  -
|  1> ! rks b3lyp sto-3g usesym numfreq
|  2>
|  3> %elprop
|  4>  polar 1
|  5>  end
|  6>
|  7> * xyz 0 1
|  8>  C       -1.4152533224   0.2302217854   0.0000000000
|  9>  C        1.4152533224  -0.2302217854   0.0000000000
| 10>  C       -0.4951331558   1.3144608674   0.0000000000
| 11>  C        0.4951331558  -1.3144608674   0.0000000000
| 12>  C        0.8894090436   1.0909493743   0.0000000000
| 13>  C       -0.8894090436  -1.0909493743   0.0000000000
| 14>  H       -0.8795511985   2.3437343748   0.0000000000
| 15>  H        0.8795511985  -2.3437343748   0.0000000000
| 16>  H        1.5779041557   1.9450061275   0.0000000000
| 17>  H       -1.5779041557  -1.9450061275   0.0000000000
| 18>  C        2.8845844962  -0.5210893778   0.0000000000
| 19>  C       -2.8845844962   0.5210893778   0.0000000000
| 20>  H        3.1403356810  -1.5919605685   0.0000000000
| 21>  H       -3.1403356810   1.5919605685   0.0000000000
| 22>  C        3.8800428103   0.3822535424   0.0000000000
| 23>  C       -3.8800428103  -0.3822535424   0.0000000000
| 24>  H        3.6946765858   1.4624389570   0.0000000000
| 25>  H       -3.6946765858  -1.4624389570   0.0000000000
| 26>  H        4.9316453546   0.0711049543   0.0000000000
| 27>  H       -4.9316453546  -0.0711049543   0.0000000000
| 28> *
| 29>
| 30>                          ****END OF INPUT****

CARTESIAN COORDINATES (ANGSTROEM)
---------------------------------
  C     -1.415253    0.230222    0.000000
  C      1.415253   -0.230222    0.000000
  C     -0.495133    1.314461    0.000000
  C      0.495133   -1.314461    0.000000
  C      0.889409    1.090949    0.000000
  C     -0.889409   -1.090949    0.000000
  H     -0.879551    2.343734    0.000000
  H      0.879551   -2.343734    0.000000
  H      1.577904    1.945006    0.000000
  H     -1.577904   -1.945006    0.000000
  C      2.884584   -0.521089    0.000000
  C     -2.884584    0.521089    0.000000
  H      3.140336   -1.591961    0.000000
  H     -3.140336    1.591961    0.000000
  C      3.880043    0.382254    0.000000
  C     -3.880043   -0.382254    0.000000
  H      3.694677    1.462439    0.000000
  H     -3.694677   -1.462439    0.000000
  H      4.931645    0.071105    0.000000
  H     -4.931645   -0.071105    0.000000

 Total Charge           Charge          ....    0
 Multiplicity           Mult            ....    1
 Number of Electrons    NEL             ....   70
 Basis Dimension        Dim             ....   60

ORBITAL ENERGIES
----------------

  NO   OCC          E(Eh)            E(eV)
   0   2.0000     -10.016169      -272.5538
   1   2.0000     -10.016120      -272.5525
   2   2.0000     -10.004054      -272.2242
   3   2.0000     -10.004053      -272.2241
   4   2.0000     -10.002984      -272.1950
   5   2.0000     -10.002982      -272.1950
   6   2.0000     -10.002341      -272.1775
   7   2.0000     -10.002198      -272.1736
   8   2.0000      -9.988397      -271.7981
   9   2.0000      -9.988397      -271.7981
  10   2.0000      -0.805807       -21.9271
  11   2.0000      -0.750299       -20.4167
  12   2.0000      -0.714199       -19.4343
  13   2.0000      -0.696254       -18.9460
  14   2.0000      -0.663619       -18.0580
  15   2.0000      -0.584890       -15.9157
  16   2.0000      -0.555451       -15.1146
  17   2.0000      -0.527883       -14.3644
  18   2.0000      -0.506296       -13.7770
  19   2.0000      -0.453994       -12.3538
  20   2.0000      -0.435549       -11.8519
  21   2.0000      -0.407443       -11.0871
  22   2.0000      -0.394064       -10.7230
  23   2.0000      -0.392391       -10.6775
  24   2.0000      -0.370794       -10.0898
  25   2.0000      -0.347359        -9.4521
  26   2.0000      -0.343428        -9.3452
  27   2.0000      -0.320824        -8.7301
  28   2.0000      -0.307466        -8.3666
  29   2.0000      -0.289363        -7.8740
  30   2.0000      -0.283878        -7.7247
  31   2.0000      -0.259758        -7.0684
  32   2.0000      -0.208560        -5.6752
  33   2.0000      -0.191489        -5.2107
  34   2.0000      -0.149226        -4.0606
  35   0.0000       0.041211         1.1214
  36   0.0000       0.093880         2.5546
  37   0.0000       0.114467         3.1148
  38   0.0000       0.185923         5.0592
  39   0.0000       0.276045         7.5116

MULLIKEN ATOMIC CHARGES
-----------------------
   0 C :   -0.004550
   1 C :   -0.004550
   2 C :   -0.076286
   3 C :   -0.076286
   4 C :   -0.076829
   5 C :   -0.076829
   6 H :    0.077595
   7 H :    0.077595
   8 H :    0.079068
   9 H :    0.079068
  10 C :   -0.076011
  11 C :   -0.076011
  12 H :    0.076277
  13 H :    0.076277
  14 C :   -0.154121
  15 C :   -0.154121
  16 H :    0.075783
  17 H :    0.075783
  18 H :    0.079073
  19 H :    0.079073
Sum of atomic charges:   -0.0000000

LOEWDIN ATOMIC CHARGES
----------------------
   0 C :    0.003593
   1 C :    0.003593
   2 C :   -0.043613
   3 C :   -0.043613
   4 C :   -0.043976
   5 C :   -0.043976
   6 H :    0.041921
   7 H :    0.041921
   8 H :    0.043568
   9 H :    0.043568
  10 C :   -0.038768
  11 C :   -0.038768
  12 H :    0.040731
  13 H :    0.040731
  14 C :   -0.091137
  15 C :   -0.091137
  16 H :    0.042797
  17 H :    0.042797
  18 H :    0.044883
  19 H :    0.044883

  Mayer bond orders larger than 0.1
B(  0-C ,  2-C ) :   1.3630 B(  0-C ,  5-C ) :   1.3651 B(  0-C , 11-C ) :   1.0665
B(  1-C ,  3-C ) :   1.3630 B(  1-C ,  4-C ) :   1.3651 B(  1-C , 10-C ) :   1.0665
B(  2-C ,  4-C ) :   1.4652 B(  2-C ,  6-H ) :   0.9614 B(  3-C ,  5-C ) :   1.4652
B(  3-C ,  7-H ) :   0.9614 B(  4-C ,  5-C ) :   0.1022 B(  4-C ,  8-H ) :   0.9595
B(  5-C ,  9-H ) :   0.9595 B( 10-C , 12-H ) :   0.9592 B( 10-C , 14-C ) :   1.9012
B( 11-C , 13-H ) :   0.9592 B( 11-C , 15-C ) :   1.9012 B( 14-C , 16-H ) :   0.9665
B( 14-C , 18-H ) :   0.9693 B( 15-C , 17-H ) :   0.9665 B( 15-C , 19-H ) :   0.9693

FINAL SINGLE POINT ENERGY      -382.050737278921

DIPOLE MOMENT
-------------
                                X             Y             Z
Electronic contribution:      0.00000      -0.00000       0.00000
Nuclear contribution   :      0.00000       0.00000       0.00000
                        -----------------------------------------
Total Dipole Moment    :      0.00000      -0.00000       0.00000
                        -----------------------------------------
Magnitude (a.u.)       :      0.00000
Magnitude (Debye)      :      0.00000

VIBRATIONAL FREQUENCIES
-----------------------

   0:         0.00 cm**-1
   1:         0.00 cm**-1
   2:         0.00 cm**-1
   3:         0.00 cm**-1
   4:         0.00 cm**-1
   5:         0.00 cm**-1
   6:        76.62 cm**-1
   7:       120.35 cm**-1
   8:       177.24 cm**-1
   9:       185.78 cm**-1
  10:       261.46 cm**-1
  11:       316.61 cm**-1
  12:       408.38 cm**-1
  13:       433.81 cm**-1
  14:       478.15 cm**-1
  15:       483.85 cm**-1
  16:       576.19 cm**-1
  17:       666.20 cm**-1
  18:       673.09 cm**-1
  19:       717.76 cm**-1
  20:       734.21 cm**-1
  21:       813.39 cm**-1
  22:       861.30 cm**-1
  23:       899.22 cm**-1
  24:       900.64 cm**-1
  25:       983.89 cm**-1
  26:       983.97 cm**-1
  27:      1020.66 cm**-1
  28:      1038.99 cm**-1
  29:      1072.41 cm**-1
  30:      1101.58 cm**-1
  31:      1108.73 cm**-1
  32:      1110.17 cm**-1
  33:      1110.33 cm**-1
  34:      1202.87 cm**-1
  35:      1260.65 cm**-1
  36:      1284.97 cm**-1
  37:      1295.69 cm**-1
  38:      1350.84 cm**-1
  39:      1397.10 cm**-1
  40:      1421.49 cm**-1
  41:      1427.86 cm**-1
  42:      1513.54 cm**-1
  43:      1563.46 cm**-1
  44:      1573.11 cm**-1
  45:      1639.43 cm**-1
  46:      1690.06 cm**-1
  47:      1738.18 cm**-1
  48:      1812.64 cm**-1
  49:      1813.46 cm**-1
  50:      3392.75 cm**-1
  51:      3393.57 cm**-1
  52:      3430.06 cm**-1
  53:      3430.18 cm**-1
  54:      3447.21 cm**-1
  55:      3450.03 cm**-1
  56:      3470.02 cm**-1
  57:      3472.49 cm**-1
  58:      3544.79 cm**-1
  59:      3544.80 cm**-1

IR SPECTRUM
-----------

 Mode    freq (cm**-1)   T**2         TX         TY         TZ
-------------------------------------------------------------------
   6:        76.62    0.077434  (  0.000002   0.000002  -0.278270)
   7:       120.35    0.000000  (  0.000002   0.000002  -0.000004)
   8:       177.24    0.438727  (  0.635076   0.188165   0.000003)
   9:       185.78    0.243543  ( -0.000002   0.000000   0.493501)
  10:       261.46    0.000000  ( -0.000000  -0.000003  -0.000003)
  11:       316.61    0.000000  ( -0.000001   0.000001   0.000002)
  12:       408.38    0.000000  ( -0.000002   0.000003   0.000013)
  13:       433.81    0.116046  ( -0.000001   0.000001   0.340655)
  14:       478.15    5.831314  ( -0.000031  -0.000011  -2.414811)
  15:       483.85    1.950917  (  1.315478   0.469503  -0.000059)
  16:       576.19    0.000000  ( -0.000001  -0.000003   0.000001)
  17:       666.20    0.000000  ( -0.000004  -0.000002  -0.000001)
  18:       673.09    0.000000  ( -0.000003  -0.000000   0.000001)
  19:       717.76    0.390619  ( -0.000014  -0.000001  -0.624996)
  20:       734.21    3.615422  (  1.896851   0.131820  -0.000000)
  21:       813.39    0.000000  (  0.000003   0.000002   0.000000)
  22:       861.30    0.000000  (  0.000000   0.000002  -0.000017)
  23:       899.22    0.000000  ( -0.000001   0.000000   0.000206)
  24:       900.64   26.794117  ( -0.000005  -0.000002   5.176303)
  25:       983.89    0.000000  (  0.000007   0.000001  -0.000248)
  26:       983.97   37.297153  (  0.000000  -0.000003   6.107140)
  27:      1020.66    0.000000  (  0.000002   0.000004   0.000003)
  28:      1038.99    0.008622  (  0.000000   0.000001   0.092857)
  29:      1072.41    0.868284  ( -0.887641  -0.283507   0.000000)
  30:      1101.58    8.526301  ( -2.858769   0.594761   0.000006)
  31:      1108.73    0.000000  (  0.000003  -0.000001  -0.000181)
  32:      1110.17   13.341966  (  0.000000   0.000003  -3.652666)
  33:      1110.33    0.000024  ( -0.000047   0.000005  -0.004851)
  34:      1202.87    2.332548  ( -1.080753  -1.079129  -0.000006)
  35:      1260.65    0.000000  ( -0.000005  -0.000003  -0.000005)
  36:      1284.97    0.225810  ( -0.123550  -0.458852  -0.000002)
  37:      1295.69    0.000000  ( -0.000001  -0.000002  -0.000000)
  38:      1350.84    9.325779  (  3.049897  -0.154626   0.000001)
  39:      1397.10    0.000000  (  0.000026   0.000004   0.000002)
  40:      1421.49    8.199281  ( -2.742549  -0.823228  -0.000000)
  41:      1427.86    0.000000  ( -0.000194  -0.000082   0.000003)
  42:      1513.54   19.023172  ( -0.890501   4.269681   0.000000)
  43:      1563.46    0.000000  (  0.000010   0.000002   0.000001)
  44:      1573.11    0.032403  ( -0.142139   0.110450   0.000001)
  45:      1639.43   15.799763  (  3.945406   0.483256  -0.000001)
  46:      1690.06    0.000000  ( -0.000000  -0.000002   0.000000)
  47:      1738.18    0.000000  ( -0.000002  -0.000000  -0.000001)
  48:      1812.64    0.000000  (  0.000000   0.000093  -0.000001)
  49:      1813.46    1.106936  (  0.017266   1.051968   0.000001)
  50:      3392.75   92.028013  (  9.343641   2.173567  -0.000000)
  51:      3393.57    0.000000  (  0.000419   0.000106   0.000000)
  52:      3430.06    0.000009  ( -0.002881   0.000799   0.000000)
  53:      3430.18    6.128938  ( -2.387647   0.654278  -0.000000)
  54:      3447.21    0.601808  ( -0.092515   0.770227  -0.000000)
  55:      3450.03    0.000000  (  0.000012  -0.000085  -0.000000)
  56:      3470.02    4.336118  (  0.745746   1.944217  -0.000000)
  57:      3472.49    0.000000  (  0.000005   0.000035   0.000001)
  58:      3544.79    0.028560  ( -0.168760   0.008958   0.000000)
  59:      3544.80    0.000000  (  0.000298  -0.000015   0.000000)

--------------------------
THERMOCHEMISTRY AT 298.15K
--------------------------

Temperature         ... 298.15 K
Pressure            ... 1.00 atm
Total Mass          ... 130.19 AMU

Throughout the following assumptions are being made:
  (1) The electronic state is orbitally nondegenerate
  (2) There are no thermally accessible electronically excited states
  (3) Hindered rotations indicated by low frequency modes are not
      treated as such but are treated as vibrations and this may
      cause some error
  (4) All equations used are the standard statistical mechanics
      equations for an ideal gas
  (5) All vibrations are strictly harmonic

freq.      76.62  E(vib)   ...       0.49
freq.     120.35  E(vib)   ...       0.44
freq.     177.24  E(vib)   ...       0.37
freq.     185.78  E(vib)   ...       0.37
freq.     261.46  E(vib)   ...       0.30
freq.     316.61  E(vib)   ...       0.25
freq.     408.38  E(vib)   ...       0.19
freq.     433.81  E(vib)   ...       0.17
freq.     478.15  E(vib)   ...       0.15
freq.     483.85  E(vib)   ...       0.15
freq.     576.19  E(vib)   ...       0.11
freq.     666.20  E(vib)   ...       0.08
freq.     673.09  E(vib)   ...       0.08
freq.     717.76  E(vib)   ...       0.07
freq.     734.21  E(vib)   ...       0.06
freq.     813.39  E(vib)   ...       0.05
freq.     861.30  E(vib)   ...       0.04
freq.     899.22  E(vib)   ...       0.03
freq.     900.64  E(vib)   ...       0.03
freq.     983.89  E(vib)   ...       0.02
freq.     983.97  E(vib)   ...       0.02
freq.    1020.66  E(vib)   ...       0.02
freq.    1038.99  E(vib)   ...       0.02
freq.    1072.41  E(vib)   ...       0.02
freq.    1101.58  E(vib)   ...       0.02
freq.    1108.73  E(vib)   ...       0.02
freq.    1110.17  E(vib)   ...       0.02
freq.    1110.33  E(vib)   ...       0.02
freq.    1202.87  E(vib)   ...       0.01
freq.    1260.65  E(vib)   ...       0.01
freq.    1284.97  E(vib)   ...       0.01
freq.    1295.69  E(vib)   ...       0.01
freq.    1350.84  E(vib)   ...       0.01
freq.    1397.10  E(vib)   ...       0.00
freq.    1421.49  E(vib)   ...       0.00
freq.    1427.86  E(vib)   ...       0.00
freq.    1513.54  E(vib)   ...       0.00
freq.    1563.46  E(vib)   ...       0.00
freq.    1573.11  E(vib)   ...       0.00
freq.    1639.43  E(vib)   ...       0.00
freq.    1690.06  E(vib)   ...       0.00
freq.    1738.18  E(vib)   ...       0.00
freq.    1812.64  E(vib)   ...       0.00
freq.    1813.46  E(vib)   ...       0.00
freq.    3392.75  E(vib)   ...       0.00
freq.    3393.57  E(vib)   ...       0.00
freq.    3430.06  E(vib)   ...       0.00
freq.    3430.18  E(vib)   ...       0.00
freq.    3447.21  E(vib)   ...       0.00
freq.    3450.03  E(vib)   ...       0.00
freq.    3470.02  E(vib)   ...       0.00
freq.    3472.49  E(vib)   ...       0.00
freq.    3544.79  E(vib)   ...       0.00
freq.    3544.80  E(vib)   ...       0.00

------------
INNER ENERGY
------------

The inner energy is: U= E(el) + E(ZPE) + E(vib) + E(rot) + E(trans)
    E(el)   - is the total energy from the electronic structure calculation
              = E(kin-el) + E(nuc-el) + E(el-el) + E(nuc-nuc)
    E(ZPE)  - the the zero temperature vibrational energy from the frequency calculation
    E(vib)  - the the finite temperature correction to E(ZPE) due to population
              of excited vibrational states
    E(rot)  - is the rotational thermal energy
    E(trans)- is the translational thermal energy

Summary of contributions to the inner energy U:
Electronic energy                ...   -382.05073728 Eh
Zero point energy                ...      0.17741503 Eh     111.33 kcal/mol
Thermal vibrational correction   ...      0.00583245 Eh       3.66 kcal/mol
Thermal rotational correction    ...      0.00141627 Eh       0.89 kcal/mol
Thermal translational correction ...      0.00141627 Eh       0.89 kcal/mol
-----------------------------------------------------------------------
Total thermal energy                   -381.86465726 Eh

Summary of corrections to the electronic energy:
(perhaps to be used in another calculation)
Total thermal correction                  0.00866499 Eh       5.44 kcal/mol
Non-thermal (ZPE) correction              0.17741503 Eh     111.33 kcal/mol
-----------------------------------------------------------------------
Total correction                          0.18608002 Eh     116.77 kcal/mol

--------
ENTHALPY
--------

The enthalpy is H = U + kB*T
                kB is Boltzmann's constant
Total free energy                 ...   -381.86465726 Eh
Thermal Enthalpy correction       ...      0.00094421 Eh       0.59 kcal/mol
-----------------------------------------------------------------------
Total Enthalpy                    ...   -381.86371305 Eh

Vibrational entropy computed according to the QRRHO of S. Grimme
Chem.Eur.J. 2012 18 9955

-------
ENTROPY
-------

The entropy contributions are T*S = T*(S(el)+S(vib)+S(rot)+S(trans)
     S(el)   - electronic entropy
     S(vib)  - vibrational entropy
     S(rot)  - rotational entropy
     S(trans)- translational entropy
The entropies will be listed as mutliplied by the temperature to get
units of energy

Electronic entropy                ...      0.00000000 Eh      0.00 kcal/mol
Vibrational entropy               ...      0.00969727 Eh      6.09 kcal/mol
Rotational entropy                ...      0.01298993 Eh      8.15 kcal/mol
Translational entropy             ...      0.01924489 Eh     12.08 kcal/mol
-----------------------------------------------------------------------
Final entropy term                ...      0.04193209 Eh     26.31 kcal/mol

CAUTION: The rotational entropy is not quite correctly treated here
         because it includes a symmetry number that is not yet correctly
         implemented in ORCA!
For a nonlinear molecule the correct rotational entropy is:
    S(rot) = R*(ln(qrot/sn)+1.5)
    R    = 8.31441 J/mol/K = 1.987191683e-3 kcal/mol/K
    qrot = 631906.5308435
    sn is the rotational symmetry number. We have assumed 3 here
       if it is different for your molecule then you should correct
       the printed rotational entropy by manually evaluating the equation
       as given above

For convenience we print out the resulting values for sn=1 - 12:
 sn= 1  qrot/sn=  631906.5308 T*S(rot)=     8.80 kcal/mol T*S(tot)=    26.96 kcal/mol
 sn= 2  qrot/sn=  315953.2654 T*S(rot)=     8.39 kcal/mol T*S(tot)=    26.55 kcal/mol
 sn= 3  qrot/sn=  210635.5103 T*S(rot)=     8.15 kcal/mol T*S(tot)=    26.31 kcal/mol
 sn= 4  qrot/sn=  157976.6327 T*S(rot)=     7.98 kcal/mol T*S(tot)=    26.14 kcal/mol
 sn= 5  qrot/sn=  126381.3062 T*S(rot)=     7.85 kcal/mol T*S(tot)=    26.01 kcal/mol
 sn= 6  qrot/sn=  105317.7551 T*S(rot)=     7.74 kcal/mol T*S(tot)=    25.90 kcal/mol
 sn= 7  qrot/sn=   90272.3615 T*S(rot)=     7.65 kcal/mol T*S(tot)=    25.81 kcal/mol
 sn= 8  qrot/sn=   78988.3164 T*S(rot)=     7.57 kcal/mol T*S(tot)=    25.73 kcal/mol
 sn= 9  qrot/sn=   70211.8368 T*S(rot)=     7.50 kcal/mol T*S(tot)=    25.66 kcal/mol

                             ****ORCA TERMINATED NORMALLY****
TOTAL RUN TIME: 0 days 1 hours 3 minutes 0 seconds 704 msec
