                         Program Version 4.0.1 -  RELEASE  -
|  1> ! rks b3lyp sto-3g usesym freq
|  2>
|  3> * xyz 0 1
|  4>  C       -1.4152533224   0.2302217854   0.0000000000
|  5>  C        1.4152533224  -0.2302217854   0.0000000000
|  6>  C       -0.4951331558   1.3144608674   0.0000000000
|  7>  C        0.4951331558  -1.3144608674   0.0000000000
|  8>  C        0.8894090436   1.0909493743   0.0000000000
|  9>  C       -0.8894090436  -1.0909493743   0.0000000000
| 10>  H       -0.8795511985   2.3437343748   0.0000000000
| 11>  H        0.8795511985  -2.3437343748   0.0000000000
| 12>  H        1.5779041557   1.9450061275   0.0000000000
| 13>  H       -1.5779041557  -1.9450061275   0.0000000000
| 14>  C        2.8845844962  -0.5210893778   0.0000000000
| 15>  C       -2.8845844962   0.5210893778   0.0000000000
| 16>  H        3.1403356810  -1.5919605685   0.0000000000
| 17>  H       -3.1403356810   1.5919605685   0.0000000000
| 18>  C        3.8800428103   0.3822535424   0.0000000000
| 19>  C       -3.8800428103  -0.3822535424   0.0000000000
| 20>  H        3.6946765858   1.4624389570   0.0000000000
| 21>  H       -3.6946765858  -1.4624389570   0.0000000000
| 22>  H        4.9316453546   0.0711049543   0.0000000000
| 23>  H       -4.9316453546  -0.0711049543   0.0000000000
| 24> *
| 25>
| 26>                          ****END OF INPUT****

CARTESIAN COORDINATES (ANGSTROEM)
---------------------------------
  C      1.433856   -0.000000    0.000000
  C     -1.433856    0.000000    0.000000
  C      0.699761   -1.217908    0.000000
  C     -0.699761    1.217908    0.000000
  C     -0.702706   -1.219600    0.000000
  C      0.702706    1.219600    0.000000
  H      1.244453   -2.172105    0.000000
  H     -1.244453    2.172105    0.000000
  H     -1.245140   -2.173122    0.000000
  H      1.245140    2.173122    0.000000
  C     -2.930826    0.051176    0.000000
  C      2.930826   -0.051176    0.000000
  H     -3.355200    1.067090    0.000000
  H      3.355200   -1.067090    0.000000
  C     -3.768328   -1.000279    0.000000
  C      3.768328    1.000279    0.000000
  H     -3.411930   -2.036687    0.000000
  H      3.411930    2.036687    0.000000
  H     -4.856245   -0.862014    0.000000
  H      4.856245    0.862014    0.000000

 Total Charge           Charge          ....    0
 Multiplicity           Mult            ....    1
 Number of Electrons    NEL             ....   70
 Basis Dimension        Dim             ....   60

ORBITAL ENERGIES
----------------

  NO   OCC          E(Eh)            E(eV)    Irrep
   0   2.0000     -10.016142      -272.5531    1-Bu
   1   2.0000     -10.016094      -272.5518    1-Ag
   2   2.0000     -10.004066      -272.2245    2-Bu
   3   2.0000     -10.004065      -272.2244    2-Ag
   4   2.0000     -10.003025      -272.1962    3-Ag
   5   2.0000     -10.003023      -272.1961    3-Bu
   6   2.0000     -10.002383      -272.1787    4-Bu
   7   2.0000     -10.002239      -272.1748    4-Ag
   8   2.0000      -9.988406      -271.7983    5-Bu
   9   2.0000      -9.988406      -271.7983    5-Ag
  10   2.0000      -0.805883       -21.9292    6-Ag
  11   2.0000      -0.750292       -20.4165    6-Bu
  12   2.0000      -0.714193       -19.4342    7-Ag
  13   2.0000      -0.696284       -18.9468    7-Bu
  14   2.0000      -0.663668       -18.0593    8-Bu
  15   2.0000      -0.584912       -15.9163    8-Ag
  16   2.0000      -0.555536       -15.1169    9-Ag
  17   2.0000      -0.527824       -14.3628    9-Bu
  18   2.0000      -0.506319       -13.7776   10-Ag
  19   2.0000      -0.453953       -12.3527   11-Ag
  20   2.0000      -0.435562       -11.8522   10-Bu
  21   2.0000      -0.407413       -11.0863   11-Bu
  22   2.0000      -0.394066       -10.7231   12-Bu
  23   2.0000      -0.392418       -10.6782   12-Ag
  24   2.0000      -0.370812       -10.0903   13-Bu
  25   2.0000      -0.347391        -9.4530   14-Bu
  26   2.0000      -0.343436        -9.3454   13-Ag
  27   2.0000      -0.320811        -8.7297    1-Au
  28   2.0000      -0.307432        -8.3657   15-Bu
  29   2.0000      -0.289362        -7.8740   14-Ag
  30   2.0000      -0.283862        -7.7243   15-Ag
  31   2.0000      -0.259765        -7.0686    1-Bg
  32   2.0000      -0.208591        -5.6760    2-Au
  33   2.0000      -0.191511        -5.2113    2-Bg
  34   2.0000      -0.149275        -4.0620    3-Bg
  35   0.0000       0.041213         1.1215    3-Au
  36   0.0000       0.093845         2.5536    4-Au
  37   0.0000       0.114445         3.1142    4-Bg
  38   0.0000       0.185911         5.0589    5-Au
  39   0.0000       0.276036         7.5113    5-Bg

MULLIKEN ATOMIC CHARGES
-----------------------
   0 C :   -0.004652
   1 C :   -0.004652
   2 C :   -0.076267
   3 C :   -0.076267
   4 C :   -0.076747
   5 C :   -0.076747
   6 H :    0.077593
   7 H :    0.077593
   8 H :    0.079009
   9 H :    0.079009
  10 C :   -0.075985
  11 C :   -0.075985
  12 H :    0.076343
  13 H :    0.076343
  14 C :   -0.154107
  15 C :   -0.154107
  16 H :    0.075842
  17 H :    0.075842
  18 H :    0.078969
  19 H :    0.078969
Sum of atomic charges:   -0.0000000

LOEWDIN ATOMIC CHARGES
----------------------
   0 C :    0.003486
   1 C :    0.003486
   2 C :   -0.043575
   3 C :   -0.043575
   4 C :   -0.043919
   5 C :   -0.043919
   6 H :    0.041923
   7 H :    0.041923
   8 H :    0.043522
   9 H :    0.043522
  10 C :   -0.038740
  11 C :   -0.038740
  12 H :    0.040786
  13 H :    0.040786
  14 C :   -0.091127
  15 C :   -0.091127
  16 H :    0.042841
  17 H :    0.042841
  18 H :    0.044802
  19 H :    0.044802

  Mayer bond orders larger than 0.1
B(  0-C ,  2-C ) :   1.3631 B(  0-C ,  5-C ) :   1.3652 B(  0-C , 11-C ) :   1.0665
B(  1-C ,  3-C ) :   1.3631 B(  1-C ,  4-C ) :   1.3652 B(  1-C , 10-C ) :   1.0665
B(  2-C ,  4-C ) :   1.4652 B(  2-C ,  6-H ) :   0.9614 B(  3-C ,  5-C ) :   1.4652
B(  3-C ,  7-H ) :   0.9614 B(  4-C ,  5-C ) :   0.1022 B(  4-C ,  8-H ) :   0.9595
B(  5-C ,  9-H ) :   0.9595 B( 10-C , 12-H ) :   0.9592 B( 10-C , 14-C ) :   1.9013
B( 11-C , 13-H ) :   0.9592 B( 11-C , 15-C ) :   1.9013 B( 14-C , 16-H ) :   0.9664
B( 14-C , 18-H ) :   0.9693 B( 15-C , 17-H ) :   0.9664 B( 15-C , 19-H ) :   0.9693

FINAL SINGLE POINT ENERGY      -382.050758039645

DIPOLE MOMENT
-------------
                                X             Y             Z
Electronic contribution:     -0.00000      -0.00000      -0.00000
Nuclear contribution   :      0.00000       0.00000       0.00000
                        -----------------------------------------
Total Dipole Moment    :     -0.00000      -0.00000      -0.00000
                        -----------------------------------------
Magnitude (a.u.)       :      0.00000
Magnitude (Debye)      :      0.00000

VIBRATIONAL FREQUENCIES
-----------------------

   0:         0.00 cm**-1
   1:         0.00 cm**-1
   2:         0.00 cm**-1
   3:         0.00 cm**-1
   4:         0.00 cm**-1
   5:         0.00 cm**-1
   6:        45.75 cm**-1
   7:        78.40 cm**-1
   8:       150.60 cm**-1
   9:       180.11 cm**-1
  10:       264.98 cm**-1
  11:       300.47 cm**-1
  12:       407.63 cm**-1
  13:       423.66 cm**-1
  14:       468.46 cm**-1
  15:       487.28 cm**-1
  16:       577.95 cm**-1
  17:       656.63 cm**-1
  18:       673.11 cm**-1
  19:       706.11 cm**-1
  20:       734.54 cm**-1
  21:       809.77 cm**-1
  22:       862.07 cm**-1
  23:       892.00 cm**-1
  24:       895.08 cm**-1
  25:       979.17 cm**-1
  26:       979.27 cm**-1
  27:      1016.16 cm**-1
  28:      1034.70 cm**-1
  29:      1072.97 cm**-1
  30:      1101.62 cm**-1
  31:      1106.31 cm**-1
  32:      1106.46 cm**-1
  33:      1110.14 cm**-1
  34:      1203.93 cm**-1
  35:      1260.84 cm**-1
  36:      1284.10 cm**-1
  37:      1295.99 cm**-1
  38:      1350.00 cm**-1
  39:      1398.09 cm**-1
  40:      1421.69 cm**-1
  41:      1427.17 cm**-1
  42:      1514.14 cm**-1
  43:      1564.63 cm**-1
  44:      1574.46 cm**-1
  45:      1639.20 cm**-1
  46:      1690.44 cm**-1
  47:      1738.13 cm**-1
  48:      1813.54 cm**-1
  49:      1814.48 cm**-1
  50:      3393.75 cm**-1
  51:      3394.38 cm**-1
  52:      3432.49 cm**-1
  53:      3432.53 cm**-1
  54:      3447.32 cm**-1
  55:      3450.90 cm**-1
  56:      3470.82 cm**-1
  57:      3473.99 cm**-1
  58:      3546.07 cm**-1
  59:      3546.08 cm**-1

IR SPECTRUM
-----------

 Mode    freq (cm**-1)   T**2         TX         TY         TZ
-------------------------------------------------------------------
   6:        45.75    0.030792  (  0.000000   0.000000  -0.175478)
   7:        78.40    0.000000  ( -0.000000   0.000000   0.000000)
   8:       150.60    0.358709  (  0.000000   0.000000   0.598923)
   9:       180.11    0.260668  (  0.430626   0.274279  -0.000000)
  10:       264.98    0.000000  ( -0.000000   0.000000   0.000000)
  11:       300.47    0.000000  (  0.000000  -0.000000  -0.000000)
  12:       407.63    0.000000  ( -0.000000  -0.000000   0.000000)
  13:       423.66    0.111165  ( -0.000000   0.000000  -0.333414)
  14:       468.46    6.145042  ( -0.000000  -0.000000  -2.478920)
  15:       487.28    2.000154  ( -1.366891  -0.362993  -0.000000)
  16:       577.95    0.000000  ( -0.000000   0.000000   0.000000)
  17:       656.63    0.000000  ( -0.000000   0.000000   0.000000)
  18:       673.11    0.000000  ( -0.000000   0.000000  -0.000000)
  19:       706.11    0.509101  ( -0.000000   0.000000  -0.713513)
  20:       734.54    4.125879  ( -1.971501  -0.488941  -0.000000)
  21:       809.77    0.000000  ( -0.000000  -0.000000   0.000000)
  22:       862.07    0.000000  (  0.000000  -0.000000  -0.000000)
  23:       892.00    0.000000  (  0.000000  -0.000000  -0.000002)
  24:       895.08   26.775542  ( -0.000000  -0.000000  -5.174509)
  25:       979.17    0.000000  ( -0.000000  -0.000000  -0.000021)
  26:       979.27   36.630470  (  0.000000   0.000000  -6.052311)
  27:      1016.16    0.000000  ( -0.000000  -0.000000  -0.000000)
  28:      1034.70    0.007134  ( -0.000000  -0.000000  -0.084463)
  29:      1072.97    0.517188  ( -0.691308  -0.198194  -0.000000)
  30:      1101.62    8.554260  (  2.912675   0.265675  -0.000000)
  31:      1106.31   13.611353  (  0.000000   0.000000  -3.689357)
  32:      1106.46    0.000000  (  0.000000   0.000000   0.000035)
  33:      1110.14    0.000000  ( -0.000000   0.000000  -0.000000)
  34:      1203.93    1.424037  (  0.969300   0.696056   0.000000)
  35:      1260.84    0.000000  ( -0.000000   0.000000   0.000000)
  36:      1284.10    0.069059  ( -0.226793   0.132756   0.000000)
  37:      1295.99    0.000000  (  0.000000   0.000000  -0.000000)
  38:      1350.00    8.861124  (  2.972547   0.158389  -0.000000)
  39:      1398.09    0.000000  (  0.000000   0.000000   0.000000)
  40:      1421.69    8.799614  (  2.793981   0.996638   0.000000)
  41:      1427.17    0.000000  (  0.000001   0.000000  -0.000000)
  42:      1514.14   18.689618  (  1.767906  -3.945139  -0.000000)
  43:      1564.63    0.000000  ( -0.000000   0.000000   0.000000)
  44:      1574.46    0.650940  (  0.674957  -0.442010  -0.000000)
  45:      1639.20   15.330078  (  3.808748   0.907476   0.000000)
  46:      1690.44    0.000000  (  0.000000   0.000000   0.000000)
  47:      1738.13    0.000000  (  0.000000  -0.000000  -0.000000)
  48:      1813.54    0.000000  (  0.000000  -0.000002  -0.000000)
  49:      1814.48    1.489426  (  0.250269  -1.194484  -0.000000)
  50:      3393.75   96.565213  ( -9.049702  -3.829896   0.000000)
  51:      3394.38    0.000000  ( -0.000025  -0.000011  -0.000000)
  52:      3432.49    3.888827  (  1.825893   0.744944   0.000000)
  53:      3432.53    0.000000  ( -0.000014  -0.000006   0.000000)
  54:      3447.32    1.217907  ( -0.307618   1.059848  -0.000000)
  55:      3450.90    0.000000  ( -0.000000  -0.000000  -0.000000)
  56:      3470.82    5.551052  ( -0.303717  -2.336409  -0.000000)
  57:      3473.99    0.000000  (  0.000000   0.000000   0.000000)
  58:      3546.07    0.047956  (  0.204103   0.079361   0.000000)
  59:      3546.08    0.000000  (  0.000000   0.000000   0.000000)

--------------------------
THERMOCHEMISTRY AT 298.15K
--------------------------

Temperature         ... 298.15 K
Pressure            ... 1.00 atm
Total Mass          ... 130.19 AMU

Throughout the following assumptions are being made:
  (1) The electronic state is orbitally nondegenerate
  (2) There are no thermally accessible electronically excited states
  (3) Hindered rotations indicated by low frequency modes are not
      treated as such but are treated as vibrations and this may
      cause some error
  (4) All equations used are the standard statistical mechanics
      equations for an ideal gas
  (5) All vibrations are strictly harmonic

freq.      45.75  E(vib)   ...       0.53
freq.      78.40  E(vib)   ...       0.49
freq.     150.60  E(vib)   ...       0.40
freq.     180.11  E(vib)   ...       0.37
freq.     264.98  E(vib)   ...       0.29
freq.     300.47  E(vib)   ...       0.26
freq.     407.63  E(vib)   ...       0.19
freq.     423.66  E(vib)   ...       0.18
freq.     468.46  E(vib)   ...       0.16
freq.     487.28  E(vib)   ...       0.15
freq.     577.95  E(vib)   ...       0.11
freq.     656.63  E(vib)   ...       0.08
freq.     673.11  E(vib)   ...       0.08
freq.     706.11  E(vib)   ...       0.07
freq.     734.54  E(vib)   ...       0.06
freq.     809.77  E(vib)   ...       0.05
freq.     862.07  E(vib)   ...       0.04
freq.     892.00  E(vib)   ...       0.03
freq.     895.08  E(vib)   ...       0.03
freq.     979.17  E(vib)   ...       0.03
freq.     979.27  E(vib)   ...       0.03
freq.    1016.16  E(vib)   ...       0.02
freq.    1034.70  E(vib)   ...       0.02
freq.    1072.97  E(vib)   ...       0.02
freq.    1101.62  E(vib)   ...       0.02
freq.    1106.31  E(vib)   ...       0.02
freq.    1106.46  E(vib)   ...       0.02
freq.    1110.14  E(vib)   ...       0.02
freq.    1203.93  E(vib)   ...       0.01
freq.    1260.84  E(vib)   ...       0.01
freq.    1284.10  E(vib)   ...       0.01
freq.    1295.99  E(vib)   ...       0.01
freq.    1350.00  E(vib)   ...       0.01
freq.    1398.09  E(vib)   ...       0.00
freq.    1421.69  E(vib)   ...       0.00
freq.    1427.17  E(vib)   ...       0.00
freq.    1514.14  E(vib)   ...       0.00
freq.    1564.63  E(vib)   ...       0.00
freq.    1574.46  E(vib)   ...       0.00
freq.    1639.20  E(vib)   ...       0.00
freq.    1690.44  E(vib)   ...       0.00
freq.    1738.13  E(vib)   ...       0.00
freq.    1813.54  E(vib)   ...       0.00
freq.    1814.48  E(vib)   ...       0.00
freq.    3393.75  E(vib)   ...       0.00
freq.    3394.38  E(vib)   ...       0.00
freq.    3432.49  E(vib)   ...       0.00
freq.    3432.53  E(vib)   ...       0.00
freq.    3447.32  E(vib)   ...       0.00
freq.    3450.90  E(vib)   ...       0.00
freq.    3470.82  E(vib)   ...       0.00
freq.    3473.99  E(vib)   ...       0.00
freq.    3546.07  E(vib)   ...       0.00
freq.    3546.08  E(vib)   ...       0.00

------------
INNER ENERGY
------------

The inner energy is: U= E(el) + E(ZPE) + E(vib) + E(rot) + E(trans)
    E(el)   - is the total energy from the electronic structure calculation
              = E(kin-el) + E(nuc-el) + E(el-el) + E(nuc-nuc)
    E(ZPE)  - the the zero temperature vibrational energy from the frequency calculation
    E(vib)  - the the finite temperature correction to E(ZPE) due to population
              of excited vibrational states
    E(rot)  - is the rotational thermal energy
    E(trans)- is the translational thermal energy

Summary of contributions to the inner energy U:
Electronic energy                ...   -382.05075804 Eh
Zero point energy                ...      0.17701490 Eh     111.08 kcal/mol
Thermal vibrational correction   ...      0.00607459 Eh       3.81 kcal/mol
Thermal rotational correction    ...      0.00141627 Eh       0.89 kcal/mol
Thermal translational correction ...      0.00141627 Eh       0.89 kcal/mol
-----------------------------------------------------------------------
Total thermal energy                   -381.86483600 Eh

Summary of corrections to the electronic energy:
(perhaps to be used in another calculation)
Total thermal correction                  0.00890714 Eh       5.59 kcal/mol
Non-thermal (ZPE) correction              0.17701490 Eh     111.08 kcal/mol
-----------------------------------------------------------------------
Total correction                          0.18592204 Eh     116.67 kcal/mol

--------
ENTHALPY
--------

The enthalpy is H = U + kB*T
                kB is Boltzmann's constant
Total free energy                 ...   -381.86483600 Eh
Thermal Enthalpy correction       ...      0.00094421 Eh       0.59 kcal/mol
-----------------------------------------------------------------------
Total Enthalpy                    ...   -381.86389179 Eh

Vibrational entropy computed according to the QRRHO of S. Grimme
Chem.Eur.J. 2012 18 9955

-------
ENTROPY
-------

The entropy contributions are T*S = T*(S(el)+S(vib)+S(rot)+S(trans)
     S(el)   - electronic entropy
     S(vib)  - vibrational entropy
     S(rot)  - rotational entropy
     S(trans)- translational entropy
The entropies will be listed as mutliplied by the temperature to get
units of energy

Electronic entropy                ...      0.00000000 Eh      0.00 kcal/mol
Vibrational entropy               ...      0.01027187 Eh      6.45 kcal/mol
Rotational entropy                ...      0.01298993 Eh      8.15 kcal/mol
Translational entropy             ...      0.01924489 Eh     12.08 kcal/mol
-----------------------------------------------------------------------
Final entropy term                ...      0.04250669 Eh     26.67 kcal/mol

CAUTION: The rotational entropy is not quite correctly treated here
         because it includes a symmetry number that is not yet correctly
         implemented in ORCA!
For a nonlinear molecule the correct rotational entropy is:
    S(rot) = R*(ln(qrot/sn)+1.5)
    R    = 8.31441 J/mol/K = 1.987191683e-3 kcal/mol/K
    qrot = 631906.5308435
    sn is the rotational symmetry number. We have assumed 3 here
       if it is different for your molecule then you should correct
       the printed rotational entropy by manually evaluating the equation
       as given above

For convenience we print out the resulting values for sn=1 - 12:
 sn= 1  qrot/sn=  631906.5308 T*S(rot)=     8.80 kcal/mol T*S(tot)=    27.32 kcal/mol
 sn= 2  qrot/sn=  315953.2654 T*S(rot)=     8.39 kcal/mol T*S(tot)=    26.91 kcal/mol
 sn= 3  qrot/sn=  210635.5103 T*S(rot)=     8.15 kcal/mol T*S(tot)=    26.67 kcal/mol
 sn= 4  qrot/sn=  157976.6327 T*S(rot)=     7.98 kcal/mol T*S(tot)=    26.50 kcal/mol
 sn= 5  qrot/sn=  126381.3062 T*S(rot)=     7.85 kcal/mol T*S(tot)=    26.37 kcal/mol
 sn= 6  qrot/sn=  105317.7551 T*S(rot)=     7.74 kcal/mol T*S(tot)=    26.26 kcal/mol
 sn= 7  qrot/sn=   90272.3615 T*S(rot)=     7.65 kcal/mol T*S(tot)=    26.17 kcal/mol
 sn= 8  qrot/sn=   78988.3164 T*S(rot)=     7.57 kcal/mol T*S(tot)=    26.09 kcal/mol
 sn= 9  qrot/sn=   70211.8368 T*S(rot)=     7.50 kcal/mol T*S(tot)=    26.02 kcal/mol

                             ****ORCA TERMINATED NORMALLY****
TOTAL RUN TIME: 0 days 0 hours 3 minutes 5 seconds 789 msec
