                         Program Version 3.0.1 -  RELEASE  -
|  1> # Frequency single point restricted B3LYP/sto-3g calc
|  2> ! RKS STO-3G B3LYP UseSym NumFreq
|  3> * xyz 0 1
|  4>  C             -1.4152533224   0.2302217854   0.0000000000
|  5>  C              1.4152533224  -0.2302217854   0.0000000000
|  6>  C             -0.4951331558   1.3144608674   0.0000000000
|  7>  C              0.4951331558  -1.3144608674   0.0000000000
|  8>  C              0.8894090436   1.0909493743   0.0000000000
|  9>  C             -0.8894090436  -1.0909493743   0.0000000000
| 10>  H             -0.8795511985   2.3437343748   0.0000000000
| 11>  H              0.8795511985  -2.3437343748   0.0000000000
| 12>  H              1.5779041557   1.9450061275   0.0000000000
| 13>  H             -1.5779041557  -1.9450061275   0.0000000000
| 14>  C              2.8845844962  -0.5210893778   0.0000000000
| 15>  C             -2.8845844962   0.5210893778   0.0000000000
| 16>  H              3.1403356810  -1.5919605685   0.0000000000
| 17>  H             -3.1403356810   1.5919605685   0.0000000000
| 18>  C              3.8800428103   0.3822535424   0.0000000000
| 19>  C             -3.8800428103  -0.3822535424   0.0000000000
| 20>  H              3.6946765858   1.4624389570   0.0000000000
| 21>  H             -3.6946765858  -1.4624389570   0.0000000000
| 22>  H              4.9316453546   0.0711049543   0.0000000000
| 23>  H             -4.9316453546  -0.0711049543   0.0000000000
| 24> *
| 25>
| 26>
| 27>                          ****END OF INPUT****

CARTESIAN COORDINATES (ANGSTROEM)
---------------------------------
  C      1.433856   -0.000000    0.000000
  C     -1.433856    0.000000    0.000000
  C      0.699761   -1.217908    0.000000
  C     -0.699761    1.217908    0.000000
  C     -0.702706   -1.219600    0.000000
  C      0.702706    1.219600    0.000000
  H      1.244453   -2.172105    0.000000
  H     -1.244453    2.172105    0.000000
  H     -1.245140   -2.173122    0.000000
  H      1.245140    2.173122    0.000000
  C     -2.930826    0.051176    0.000000
  C      2.930826   -0.051176    0.000000
  H     -3.355200    1.067090    0.000000
  H      3.355200   -1.067090    0.000000
  C     -3.768328   -1.000279    0.000000
  C      3.768328    1.000279    0.000000
  H     -3.411930   -2.036687    0.000000
  H      3.411930    2.036687    0.000000
  H     -4.856245   -0.862014    0.000000
  H      4.856245    0.862014    0.000000

 Total Charge           Charge          ....    0
 Multiplicity           Mult            ....    1
 Number of Electrons    NEL             ....   70
 Basis Dimension        Dim             ....   60

ORBITAL ENERGIES
----------------

  NO   OCC          E(Eh)            E(eV)    Irrep
   0   2.0000     -10.016215      -272.5551    1-Bu
   1   2.0000     -10.016167      -272.5538    1-Ag
   2   2.0000     -10.003965      -272.2217    2-Bu
   3   2.0000     -10.003964      -272.2217    2-Ag
   4   2.0000     -10.002980      -272.1949    3-Ag
   5   2.0000     -10.002977      -272.1949    3-Bu
   6   2.0000     -10.002338      -272.1775    4-Bu
   7   2.0000     -10.002194      -272.1735    4-Ag
   8   2.0000      -9.988398      -271.7981    5-Bu
   9   2.0000      -9.988398      -271.7981    5-Ag
  10   2.0000      -0.805875       -21.9290    6-Ag
  11   2.0000      -0.750278       -20.4161    6-Bu
  12   2.0000      -0.714169       -19.4335    7-Ag
  13   2.0000      -0.696264       -18.9463    7-Bu
  14   2.0000      -0.663661       -18.0591    8-Bu
  15   2.0000      -0.584902       -15.9160    8-Ag
  16   2.0000      -0.555529       -15.1167    9-Ag
  17   2.0000      -0.527813       -14.3625    9-Bu
  18   2.0000      -0.506309       -13.7774   10-Ag
  19   2.0000      -0.453939       -12.3523   11-Ag
  20   2.0000      -0.435549       -11.8519   10-Bu
  21   2.0000      -0.407404       -11.0860   11-Bu
  22   2.0000      -0.394061       -10.7230   12-Bu
  23   2.0000      -0.392403       -10.6778   12-Ag
  24   2.0000      -0.370797       -10.0899   13-Bu
  25   2.0000      -0.347376        -9.4526   14-Bu
  26   2.0000      -0.343425        -9.3451   13-Ag
  27   2.0000      -0.320802        -8.7295    1-Au
  28   2.0000      -0.307426        -8.3655   15-Bu
  29   2.0000      -0.289351        -7.8736   14-Ag
  30   2.0000      -0.283855        -7.7241   15-Ag
  31   2.0000      -0.259751        -7.0682    1-Bg
  32   2.0000      -0.208565        -5.6753    2-Au
  33   2.0000      -0.191489        -5.2107    2-Bg
  34   2.0000      -0.149270        -4.0618    3-Bg
  35   0.0000       0.041219         1.1216    3-Au
  36   0.0000       0.093867         2.5542    4-Au
  37   0.0000       0.114471         3.1149    4-Bg
  38   0.0000       0.185925         5.0593    5-Au
  39   0.0000       0.276044         7.5115    5-Bg

MULLIKEN ATOMIC CHARGES
-----------------------
   0 C :   -0.004413
   1 C :   -0.004413
   2 C :   -0.076369
   3 C :   -0.076369
   4 C :   -0.076860
   5 C :   -0.076860
   6 H :    0.077629
   7 H :    0.077629
   8 H :    0.079045
   9 H :    0.079045
  10 C :   -0.076233
  11 C :   -0.076233
  12 H :    0.076413
  13 H :    0.076413
  14 C :   -0.154102
  15 C :   -0.154102
  16 H :    0.075882
  17 H :    0.075882
  18 H :    0.079009
  19 H :    0.079009
Sum of atomic charges:   -0.0000000

LOEWDIN ATOMIC CHARGES
----------------------
   0 C :    0.003676
   1 C :    0.003676
   2 C :   -0.043655
   3 C :   -0.043655
   4 C :   -0.044009
   5 C :   -0.044009
   6 H :    0.041950
   7 H :    0.041950
   8 H :    0.043549
   9 H :    0.043549
  10 C :   -0.038937
  11 C :   -0.038937
  12 H :    0.040839
  13 H :    0.040839
  14 C :   -0.091116
  15 C :   -0.091116
  16 H :    0.042871
  17 H :    0.042871
  18 H :    0.044832
  19 H :    0.044832

  Mayer bond orders larger than 0.1
B(  0-C ,  2-C ) :   1.3631 B(  0-C ,  5-C ) :   1.3652 B(  0-C , 11-C ) :   1.0664
B(  1-C ,  3-C ) :   1.3631 B(  1-C ,  4-C ) :   1.3652 B(  1-C , 10-C ) :   1.0664
B(  2-C ,  4-C ) :   1.4652 B(  2-C ,  6-H ) :   0.9614 B(  3-C ,  5-C ) :   1.4652
B(  3-C ,  7-H ) :   0.9614 B(  4-C ,  5-C ) :   0.1022 B(  4-C ,  8-H ) :   0.9595
B(  5-C ,  9-H ) :   0.9595 B( 10-C , 12-H ) :   0.9592 B( 10-C , 14-C ) :   1.9013
B( 11-C , 13-H ) :   0.9592 B( 11-C , 15-C ) :   1.9013 B( 14-C , 16-H ) :   0.9664
B( 14-C , 18-H ) :   0.9693 B( 15-C , 17-H ) :   0.9664 B( 15-C , 19-H ) :   0.9693

FINAL SINGLE POINT ENERGY      -382.050758129382

DIPOLE MOMENT
-------------
                                X             Y             Z
Electronic contribution:     -0.00000      -0.00000       0.00000
Nuclear contribution   :      0.00000       0.00000       0.00000
                        -----------------------------------------
Total Dipole Moment    :     -0.00000      -0.00000       0.00000
                        -----------------------------------------
Magnitude (a.u.)       :      0.00000
Magnitude (Debye)      :      0.00000

VIBRATIONAL FREQUENCIES
-----------------------

   0:         0.00 cm**-1
   1:         0.00 cm**-1
   2:         0.00 cm**-1
   3:         0.00 cm**-1
   4:         0.00 cm**-1
   5:         0.00 cm**-1
   6:       266.19 cm**-1
   7:       365.42 cm**-1
   8:       367.47 cm**-1
   9:       406.98 cm**-1
  10:       491.16 cm**-1
  11:       578.89 cm**-1
  12:       672.87 cm**-1
  13:       716.35 cm**-1
  14:       809.01 cm**-1
  15:       862.45 cm**-1
  16:       948.33 cm**-1
  17:       971.40 cm**-1
  18:      1007.40 cm**-1
  19:      1031.56 cm**-1
  20:      1109.78 cm**-1
  21:      1165.13 cm**-1
  22:      1177.25 cm**-1
  23:      1208.45 cm**-1
  24:      1232.41 cm**-1
  25:      1245.27 cm**-1
  26:      1254.39 cm**-1
  27:      1259.87 cm**-1
  28:      1274.46 cm**-1
  29:      1295.31 cm**-1
  30:      1333.46 cm**-1
  31:      1340.60 cm**-1
  32:      1352.85 cm**-1
  33:      1359.40 cm**-1
  34:      1382.39 cm**-1
  35:      1386.98 cm**-1
  36:      1397.56 cm**-1
  37:      1423.98 cm**-1
  38:      1429.60 cm**-1
  39:      1441.25 cm**-1
  40:      1475.94 cm**-1
  41:      1494.51 cm**-1
  42:      1506.81 cm**-1
  43:      1512.05 cm**-1
  44:      1564.14 cm**-1
  45:      1601.82 cm**-1
  46:      1681.11 cm**-1
  47:      1691.26 cm**-1
  48:      1738.49 cm**-1
  49:      1812.64 cm**-1
  50:      3037.55 cm**-1
  51:      3063.86 cm**-1
  52:      3076.84 cm**-1
  53:      3086.35 cm**-1
  54:      3108.86 cm**-1
  55:      3394.56 cm**-1
  56:      3431.54 cm**-1
  57:      3449.31 cm**-1
  58:      3474.57 cm**-1
  59:      3546.29 cm**-1

IR SPECTRUM
-----------

 Mode    freq (cm**-1)   T**2         TX         TY         TZ
-------------------------------------------------------------------
   6:       266.19    0.000000  (  0.000001   0.000001  -0.000000)
   7:       365.42    0.026848  (  0.066816  -0.149612  -0.000000)
   8:       367.47    0.013322  (  0.000000  -0.000000   0.115422)
   9:       406.98    0.000000  (  0.000001   0.000004  -0.000000)
  10:       491.16    0.049319  (  0.045731   0.217319  -0.000000)
  11:       578.89    0.000000  (  0.000001   0.000001  -0.000000)
  12:       672.87    0.000000  ( -0.000008   0.000001  -0.000000)
  13:       716.35    0.000000  ( -0.000000   0.000000  -0.000000)
  14:       809.01    0.359738  ( -0.554010   0.229806  -0.000000)
  15:       862.45    0.000000  (  0.000004  -0.000002   0.000000)
  16:       948.33    0.000000  (  0.000000  -0.000000  -0.000019)
  17:       971.40    1.480217  (  0.000000   0.000000  -1.216642)
  18:      1007.40    0.013054  (  0.000000  -0.000000   0.114254)
  19:      1031.56    0.631922  ( -0.583144   0.540246   0.000000)
  20:      1109.78    0.000000  ( -0.000010   0.000001  -0.000000)
  21:      1165.13   15.151435  (  0.000000   0.000000   3.892484)
  22:      1177.25    0.000000  (  0.000000   0.000000  -0.000013)
  23:      1208.45    2.067406  (  1.341270  -0.518073   0.000000)
  24:      1232.41   16.086028  ( -2.382554  -3.226370   0.000000)
  25:      1245.27    0.000000  (  0.000000   0.000000  -0.000000)
  26:      1254.39    0.003801  (  0.000000   0.000000  -0.061652)
  27:      1259.87    0.000000  (  0.000066   0.000064  -0.000000)
  28:      1274.46   15.296682  (  3.899752  -0.297686   0.000000)
  29:      1295.31    0.000000  (  0.000031   0.000041   0.000000)
  30:      1333.46    0.000000  (  0.000000   0.000000   0.000011)
  31:      1340.60   14.796993  (  3.190838  -2.148383   0.000000)
  32:      1352.85    8.425989  ( -0.000000   0.000000   2.902755)
  33:      1359.40    0.000000  ( -0.000000  -0.000000   0.000079)
  34:      1382.39    3.842145  ( -0.674559   1.840412   0.000000)
  35:      1386.98  101.482177  (  0.000000  -0.000000  10.073836)
  36:      1397.56    0.000000  ( -0.000005   0.000025   0.000000)
  37:      1423.98    0.000000  ( -0.000022  -0.000017   0.000000)
  38:      1429.60    0.028115  (  0.000000   0.000000  -0.167674)
  39:      1441.25   57.454789  ( -5.547359  -5.165424   0.000000)
  40:      1475.94    0.000000  ( -0.000000  -0.000000   0.000033)
  41:      1494.51    5.670353  ( -0.000000  -0.000000  -2.381250)
  42:      1506.81   53.053073  ( -7.177308  -1.240697   0.000000)
  43:      1512.05    0.000000  ( -0.000000  -0.000000   0.000011)
  44:      1564.14    0.000000  ( -0.000024   0.000016   0.000000)
  45:      1601.82   16.406473  ( -0.117942  -4.048773  -0.000000)
  46:      1681.11    4.868333  ( -1.364978   1.733542  -0.000000)
  47:      1691.26    0.000000  ( -0.000012  -0.000019  -0.000000)
  48:      1738.49    0.000000  ( -0.000008  -0.000002   0.000000)
  49:      1812.64    0.000000  ( -0.000008   0.000002  -0.000000)
  50:      3037.55   25.205772  ( -2.166471   4.529037  -0.000000)
  51:      3063.86   72.292119  ( -0.981226   8.445668   0.000000)
  52:      3076.84  190.570854  (-13.007534   4.623301   0.000000)
  53:      3086.35   25.201838  ( -3.337960   3.749648  -0.000000)
  54:      3108.86  215.872746  (  0.504553  14.683943  -0.000000)
  55:      3394.56    0.000000  (  0.000001   0.000001   0.000000)
  56:      3431.54    0.000000  (  0.000001  -0.000002   0.000000)
  57:      3449.31    0.000000  ( -0.000020   0.000025  -0.000000)
  58:      3474.57    0.000000  (  0.000008  -0.000011  -0.000000)
  59:      3546.29    0.000000  ( -0.000001  -0.000000  -0.000000)

--------------------------
THERMOCHEMISTRY AT 298.15K
--------------------------

Temperature         ... 298.15 K
Pressure            ... 1.00 atm
Total Mass          ... 130.19 AMU

Throughout the following assumptions are being made:
  (1) The electronic state is orbitally nondegenerate
  (2) There are no thermally accessible electronically excited states
  (3) Hindered rotations indicated by low frequency modes) are not
      treated as such but are treated as vibrations and this may
      case some error
  (4) All equations used are the standard statistical mechanics
      equations for an ideal gas
  (5) All vibrations are strinctly harmonic

------------
INNER ENERGY
------------

The inner energy is: U= E(el) + E(ZPE) + E(vib) + E(rot) + E(trans)
    E(el)   - is the total energy from the electronic structure calculation
              = E(kin-el) + E(nuc-el) + E(el-el) + E(nuc-nuc)
    E(ZPE)  - the the zero temperature vibrational energy from the frequency calculation
    E(vib)  - the the finite temperature correction to E(ZPE) due to population
              of excietd vibrational states
    E(rot)  - is the rotational thermal energy
    E(trans)- is the translational thermal energy

Summary of contributions to the inner energy U:
Electronic energy                ...   -382.05075813 Eh
Zero point energy                ...      0.19208219 Eh     120.53 kcal/mol
Thermal vibrational correction   ...      0.00265084 Eh       1.66 kcal/mol
Thermal rotational correction    ...      0.00141627 Eh       0.89 kcal/mol
Thermal translational correction ...      0.00141627 Eh       0.89 kcal/mol
-----------------------------------------------------------------------
Total thermal energy                   -381.85319256 Eh

Summary of corrections to the electronic energy:
(perhaps to be used in another calculation)
Total thermal correction                  0.00548338 Eh       3.44 kcal/mol
Non-thermal (ZPE) correction              0.19208219 Eh     120.53 kcal/mol
-----------------------------------------------------------------------
Total correction                          0.19756557 Eh     123.97 kcal/mol

--------
ENTHALPY
--------

The enthalpy is H = U + kB*T
                kB is Boltzmann's constant
Total free energy                 ...   -381.85319256 Eh
Thermal Enthalpy correction       ...      0.00094421 Eh       0.59 kcal/mol
-----------------------------------------------------------------------
Total Enthalpy                    ...   -381.85224835 Eh

-------
ENTROPY
-------

The entropy contributions are T*S = T*(S(el)+S(vib)+S(rot)+S(trans)
     S(el)   - electronic entropy
     S(vib)  - vibrational entropy
     S(rot)  - rotational entropy
     S(trans)- translational entropy
The entropies will be listed as mutliplied by the temperature to get
units of energy

Electronic entropy                ...      0.00000000 Eh      0.00 kcal/mol
Vibrational entropy               ...      0.00378267 Eh      2.37 kcal/mol
Rotational entropy                ...      0.01298993 Eh      8.15 kcal/mol
Translational entropy             ...      0.01924489 Eh     12.08 kcal/mol
-----------------------------------------------------------------------
Final entropy term                ...      0.03601749 Eh     22.60 kcal/mol

CAUTION: The rotational entropy is not quite correctly treated here
         because it includes a symmetry number that is not yet correctly
         implemented in ORCA!
For a nonlinear molecule the correct rotational entropy is:
    S(rot) = R*(ln(qrot/sn)+1.5)
    R    = 8.31441 J/mol/K = 1.987191683e-3 kcal/mol/K
    qrot = 631906.5308435
    sn is the rotational symmetry number. We have assumed 3 here
       if it is different for your molecule then you should correct
       the printed rotational entropy by manually evaluating the equation
       as given above

For convenience we print out the resulting values for sn=1 - 12:
 sn= 1  qrot/sn=  631906.5308 T*S(rot)=     8.80 kcal/mol T*S(tot)=    23.25 kcal/mol
 sn= 2  qrot/sn=  315953.2654 T*S(rot)=     8.39 kcal/mol T*S(tot)=    22.84 kcal/mol
 sn= 3  qrot/sn=  210635.5103 T*S(rot)=     8.15 kcal/mol T*S(tot)=    22.60 kcal/mol
 sn= 4  qrot/sn=  157976.6327 T*S(rot)=     7.98 kcal/mol T*S(tot)=    22.43 kcal/mol
 sn= 5  qrot/sn=  126381.3062 T*S(rot)=     7.85 kcal/mol T*S(tot)=    22.30 kcal/mol
 sn= 6  qrot/sn=  105317.7551 T*S(rot)=     7.74 kcal/mol T*S(tot)=    22.19 kcal/mol
 sn= 7  qrot/sn=   90272.3615 T*S(rot)=     7.65 kcal/mol T*S(tot)=    22.10 kcal/mol
 sn= 8  qrot/sn=   78988.3164 T*S(rot)=     7.57 kcal/mol T*S(tot)=    22.02 kcal/mol
 sn= 9  qrot/sn=   70211.8368 T*S(rot)=     7.50 kcal/mol T*S(tot)=    21.95 kcal/mol
 sn=10  qrot/sn=   63190.6531 T*S(rot)=     7.44 kcal/mol T*S(tot)=    21.89 kcal/mol
 sn=11  qrot/sn=   57446.0483 T*S(rot)=     7.38 kcal/mol T*S(tot)=    21.83 kcal/mol
 sn=12  qrot/sn=   52658.8776 T*S(rot)=     7.33 kcal/mol T*S(tot)=    21.78 kcal/mol

-------------------
GIBBS FREE ENTHALPY
-------------------

The Gibbs free enthalpy is G = H - T*S

Total enthalpy                    ...   -381.85224835 Eh
Total entropy correction          ...     -0.03601749 Eh    -22.60 kcal/mol
-----------------------------------------------------------------------
Final Gibbs free enthalpy         ...   -381.88826585 Eh

For completeness - the Gibbs free enthalpy minus the electronic energy
G-E(el)                           ...      0.16249228 Eh    101.97 kcal/mol

                             ****ORCA TERMINATED NORMALLY****
TOTAL RUN TIME: 0 days 0 hours 48 minutes 9 seconds 733 msec
