                         Program Version 3.0.3 - RELEASE   -
|  1> ! hf sto-3g nori verytightscf noautostart
|  2>
|  3> %elprop
|  4>  polar 1
|  5>  end
|  6>
|  7> * xyz 0 1
|  8> N     -0.0699826875    0.3321987191    0.2821283177
|  9> C      1.3728035449    0.0970713322   -0.0129587739
| 10> C      2.0969275417   -0.0523593054    1.3682652221
| 11> O      3.1382490088   -0.6563684788    1.5380162924
| 12> C      1.9529664597    1.3136139853   -0.7956021969
| 13> H      1.8442727348    2.2050605044   -0.1801631789
| 14> H      1.3455899915    1.4594935008   -1.6885689523
| 15> C      3.4053646872    1.1270611844   -1.1918075237
| 16> C      4.4845249667    1.6235038050   -0.5598918002
| 17> N      5.6509089647    1.2379326369   -1.2284610654
| 18> H      6.6009314349    1.4112351003   -0.9028629397
| 19> C      5.2921619642    0.4356274269   -2.3131617003
| 20> C      3.8942019475    0.3557998019   -2.3263315791
| 21> C      3.2659168792   -0.3832607567   -3.3431309548
| 22> H      2.1864306677   -0.4577058843   -3.3815918670
| 23> C      4.0381762333   -1.0087512639   -4.2870993776
| 24> H      3.5696890585   -1.5824763141   -5.0755609734
| 25> C      5.4445159165   -0.9194874753   -4.2519002882
| 26> H      6.0229926396   -1.4277973542   -5.0130007062
| 27> C      6.0869576238   -0.2024044961   -3.2767702726
| 28> H      7.1656650647   -0.1287762497   -3.2458650647
| 29> H      4.5457621618    2.2425310766    0.3253979653
| 30> H     -0.5159777859    0.7478905868   -0.5487661007
| 31> H      1.5420526570   -0.8143939718   -0.5935463196
| 32> H     -0.5302278747   -0.5823989653    0.4084507634
| 33> O      1.4575846656    0.5996887308    2.4093500287
| 34> H      0.5990015339    0.8842421241    2.0047830456
| 35> *
| 36>
| 37>                          ****END OF INPUT****

CARTESIAN COORDINATES (ANGSTROEM)
---------------------------------
  N     -0.069983    0.332199    0.282128
  C      1.372804    0.097071   -0.012959
  C      2.096928   -0.052359    1.368265
  O      3.138249   -0.656368    1.538016
  C      1.952966    1.313614   -0.795602
  H      1.844273    2.205061   -0.180163
  H      1.345590    1.459494   -1.688569
  C      3.405365    1.127061   -1.191808
  C      4.484525    1.623504   -0.559892
  N      5.650909    1.237933   -1.228461
  H      6.600931    1.411235   -0.902863
  C      5.292162    0.435627   -2.313162
  C      3.894202    0.355800   -2.326332
  C      3.265917   -0.383261   -3.343131
  H      2.186431   -0.457706   -3.381592
  C      4.038176   -1.008751   -4.287099
  H      3.569689   -1.582476   -5.075561
  C      5.444516   -0.919487   -4.251900
  H      6.022993   -1.427797   -5.013001
  C      6.086958   -0.202404   -3.276770
  H      7.165665   -0.128776   -3.245865
  H      4.545762    2.242531    0.325398
  H     -0.515978    0.747891   -0.548766
  H      1.542053   -0.814394   -0.593546
  H     -0.530228   -0.582399    0.408451
  O      1.457585    0.599689    2.409350
  H      0.599002    0.884242    2.004783

 Total Charge           Charge          ....    0
 Multiplicity           Mult            ....    1
 Number of Electrons    NEL             ....  108
 Basis Dimension        Dim             ....   87

ORBITAL ENERGIES
----------------

  NO   OCC          E(Eh)            E(eV)
   0   2.0000     -20.269003      -551.5476
   1   2.0000     -20.242282      -550.8205
   2   2.0000     -15.389725      -418.7757
   3   2.0000     -15.345429      -417.5703
   4   2.0000     -11.148169      -303.3571
   5   2.0000     -11.098471      -302.0048
   6   2.0000     -11.068074      -301.1776
   7   2.0000     -11.065152      -301.0981
   8   2.0000     -11.063363      -301.0494
   9   2.0000     -11.025404      -300.0165
  10   2.0000     -11.025268      -300.0128
  11   2.0000     -11.023906      -299.9757
  12   2.0000     -11.016042      -299.7618
  13   2.0000     -11.014915      -299.7311
  14   2.0000     -11.011548      -299.6395
  15   2.0000      -1.347680       -36.6722
  16   2.0000      -1.257839       -34.2275
  17   2.0000      -1.219988       -33.1976
  18   2.0000      -1.153790       -31.3962
  19   2.0000      -1.074547       -29.2399
  20   2.0000      -1.025525       -27.9059
  21   2.0000      -0.959273       -26.1032
  22   2.0000      -0.936776       -25.4910
  23   2.0000      -0.913338       -24.8532
  24   2.0000      -0.837641       -22.7934
  25   2.0000      -0.783051       -21.3079
  26   2.0000      -0.749374       -20.3915
  27   2.0000      -0.710598       -19.3364
  28   2.0000      -0.692634       -18.8475
  29   2.0000      -0.669163       -18.2089
  30   2.0000      -0.648389       -17.6436
  31   2.0000      -0.616892       -16.7865
  32   2.0000      -0.602324       -16.3901
  33   2.0000      -0.598357       -16.2821
  34   2.0000      -0.580763       -15.8034
  35   2.0000      -0.556460       -15.1421
  36   2.0000      -0.542814       -14.7707
  37   2.0000      -0.536860       -14.6087
  38   2.0000      -0.524088       -14.2612
  39   2.0000      -0.517742       -14.0885
  40   2.0000      -0.497935       -13.5495
  41   2.0000      -0.487160       -13.2563
  42   2.0000      -0.478774       -13.0281
  43   2.0000      -0.459727       -12.5098
  44   2.0000      -0.444625       -12.0989
  45   2.0000      -0.438477       -11.9316
  46   2.0000      -0.416688       -11.3387
  47   2.0000      -0.413912       -11.2631
  48   2.0000      -0.369715       -10.0604
  49   2.0000      -0.328525        -8.9396
  50   2.0000      -0.325620        -8.8606
  51   2.0000      -0.306745        -8.3470
  52   2.0000      -0.242586        -6.6011
  53   2.0000      -0.225669        -6.1408
  54   0.0000       0.247577         6.7369
  55   0.0000       0.295186         8.0324
  56   0.0000       0.318510         8.6671
  57   0.0000       0.369440        10.0530
  58   0.0000       0.521849        14.2002

MULLIKEN ATOMIC CHARGES
-----------------------
   0 N :   -0.405350
   1 C :    0.019228
   2 C :    0.298919
   3 O :   -0.260769
   4 C :   -0.106000
   5 H :    0.066640
   6 H :    0.060788
   7 C :   -0.035657
   8 C :    0.043391
   9 N :   -0.321558
  10 H :    0.216300
  11 C :    0.105706
  12 C :   -0.023661
  13 C :   -0.064892
  14 H :    0.055242
  15 C :   -0.075176
  16 H :    0.056995
  17 C :   -0.059357
  18 H :    0.060758
  19 C :   -0.082603
  20 H :    0.061584
  21 H :    0.077314
  22 H :    0.163263
  23 H :    0.065997
  24 H :    0.161111
  25 O :   -0.312239
  26 H :    0.234025
Sum of atomic charges:   -0.0000000

LOEWDIN ATOMIC CHARGES
----------------------
   0 N :   -0.264839
   1 C :    0.032755
   2 C :    0.212022
   3 O :   -0.204166
   4 C :   -0.038159
   5 H :    0.032935
   6 H :    0.028721
   7 C :   -0.052782
   8 C :    0.033640
   9 N :   -0.146889
  10 H :    0.148410
  11 C :    0.071719
  12 C :   -0.031417
  13 C :   -0.032462
  14 H :    0.025390
  15 C :   -0.049218
  16 H :    0.026368
  17 C :   -0.028244
  18 H :    0.029221
  19 C :   -0.059122
  20 H :    0.030688
  21 H :    0.042198
  22 H :    0.107516
  23 H :    0.028066
  24 H :    0.105779
  25 O :   -0.219012
  26 H :    0.170882

  Mayer bond orders larger than 0.1
B(  0-N ,  1-C ) :   0.9684 B(  0-N , 22-H ) :   0.9436 B(  0-N , 24-H ) :   0.9487
B(  1-C ,  2-C ) :   0.9085 B(  1-C ,  4-C ) :   0.9664 B(  1-C , 23-H ) :   0.9601
B(  2-C ,  3-O ) :   1.9269 B(  2-C , 25-O ) :   1.0303 B(  3-O , 25-O ) :   0.1444
B(  4-C ,  5-H ) :   0.9731 B(  4-C ,  6-H ) :   0.9690 B(  4-C ,  7-C ) :   0.9997
B(  7-C ,  8-C ) :   1.6846 B(  7-C , 12-C ) :   1.1369 B(  8-C ,  9-N ) :   1.1041
B(  8-C , 21-H ) :   0.9696 B(  9-N , 10-H ) :   0.9136 B(  9-N , 11-C ) :   1.0919
B( 11-C , 12-C ) :   1.3387 B( 11-C , 19-C ) :   1.3046 B( 12-C , 13-C ) :   1.3076
B( 13-C , 14-H ) :   0.9713 B( 13-C , 15-C ) :   1.5383 B( 13-C , 19-C ) :   0.1093
B( 15-C , 16-H ) :   0.9725 B( 15-C , 17-C ) :   1.3286 B( 17-C , 18-H ) :   0.9721
B( 17-C , 19-C ) :   1.5353 B( 19-C , 20-H ) :   0.9710 B( 25-O , 26-H ) :   0.8829

FINAL SINGLE POINT ENERGY      -673.590571115293

DIPOLE MOMENT
-------------
                                X             Y             Z
Electronic contribution:      4.95149      -0.37148       3.66893
Nuclear contribution   :     -5.42657       0.74711      -4.54690
                        -----------------------------------------
Total Dipole Moment    :     -0.47508       0.37562      -0.87797
                        -----------------------------------------
Magnitude (a.u.)       :      1.06659
Magnitude (Debye)      :      2.71106

                             ****ORCA TERMINATED NORMALLY****
TOTAL RUN TIME: 0 days 0 hours 1 minutes 24 seconds 855 msec
