                              Psi4 1.0.54 Driver

  ==> Input File <==

--------------------------------------------------------------------------
molecule dvb {
    0 1
    C    -1.4152533224   0.2302217854   0.0000000000
    C     1.4152533224  -0.2302217854   0.0000000000
    C    -0.4951331558   1.3144608674   0.0000000000
    C     0.4951331558  -1.3144608674   0.0000000000
    C     0.8894090436   1.0909493743   0.0000000000
    C    -0.8894090436  -1.0909493743   0.0000000000
    H    -0.8795511985   2.3437343748   0.0000000000
    H     0.8795511985  -2.3437343748   0.0000000000
    H     1.5779041557   1.9450061275   0.0000000000
    H    -1.5779041557  -1.9450061275   0.0000000000
    C     2.8845844962  -0.5210893778   0.0000000000
    C    -2.8845844962   0.5210893778   0.0000000000
    H     3.1403356810  -1.5919605685   0.0000000000
    H    -3.1403356810   1.5919605685   0.0000000000
    C     3.8800428103   0.3822535424   0.0000000000
    C    -3.8800428103  -0.3822535424   0.0000000000
    H     3.6946765858   1.4624389570   0.0000000000
    H    -3.6946765858  -1.4624389570   0.0000000000
    H     4.9316453546   0.0711049543   0.0000000000
    H    -4.9316453546  -0.0711049543   0.0000000000
}

set {
    basis sto-3g
    print_basis true
    print_mos true
}

scf_e, scf_wfn = energy('scf', return_wfn=True)
oeprop(scf_wfn, 'MULLIKEN_CHARGES', 'LOWDIN_CHARGES', 'MULTIPOLE(5)')
--------------------------------------------------------------------------

    Molecular point group: c2h

    Geometry (in Angstrom), charge = 0, multiplicity = 1:

       Center              X                  Y                   Z               Mass
    ------------   -----------------  -----------------  -----------------  -----------------
           C         -1.415253322400     0.230221785400     0.000000000000    12.000000000000
           C          1.415253322400    -0.230221785400     0.000000000000    12.000000000000
           C         -0.495133155800     1.314460867400     0.000000000000    12.000000000000
           C          0.495133155800    -1.314460867400     0.000000000000    12.000000000000
           C          0.889409043600     1.090949374300     0.000000000000    12.000000000000
           C         -0.889409043600    -1.090949374300     0.000000000000    12.000000000000
           H         -0.879551198500     2.343734374800     0.000000000000     1.007825032070
           H          0.879551198500    -2.343734374800     0.000000000000     1.007825032070
           H          1.577904155700     1.945006127500     0.000000000000     1.007825032070
           H         -1.577904155700    -1.945006127500     0.000000000000     1.007825032070
           C          2.884584496200    -0.521089377800     0.000000000000    12.000000000000
           C         -2.884584496200     0.521089377800     0.000000000000    12.000000000000
           H          3.140335681000    -1.591960568500     0.000000000000     1.007825032070
           H         -3.140335681000     1.591960568500     0.000000000000     1.007825032070
           C          3.880042810300     0.382253542400     0.000000000000    12.000000000000
           C         -3.880042810300    -0.382253542400     0.000000000000    12.000000000000
           H          3.694676585800     1.462438957000     0.000000000000     1.007825032070
           H         -3.694676585800    -1.462438957000     0.000000000000     1.007825032070
           H          4.931645354600     0.071104954300     0.000000000000     1.007825032070
           H         -4.931645354600    -0.071104954300     0.000000000000     1.007825032070

  Charge       = 0
  Multiplicity = 1
  Basis Set: STO-3G
  Basis Set:

    Orbital Energies (a.u.)
    -----------------------

    Doubly Occupied:

       1Bu   -11.040928     1Ag   -11.040865     2Bu   -11.031920
       2Ag   -11.031919     3Bu   -11.029272     3Ag   -11.029141
       4Bu   -11.028929     4Ag   -11.028907     5Bu   -11.017789
       5Ag   -11.017789     6Ag    -1.090290     6Bu    -1.020257
       7Ag    -0.974921     7Bu    -0.950304     8Bu    -0.909638
       8Ag    -0.799873     9Ag    -0.762811     9Bu    -0.727633
      10Ag    -0.696759    11Ag    -0.628020    10Bu    -0.605648
      11Bu    -0.572930    12Bu    -0.553568    12Ag    -0.553141
      13Bu    -0.525336    14Bu    -0.496653    13Ag    -0.492517
       1Au    -0.463675    15Bu    -0.446429    14Ag    -0.421635
      15Ag    -0.415607     1Bg    -0.376922     2Au    -0.315104
       2Bg    -0.278315     3Bg    -0.222155

  @DF-RHF Final Energy:  -379.77138925554823

   => Energetics <=

    Nuclear Repulsion Energy =            445.9369781142434022
    One-Electron Energy =               -1400.2215172457131303
    Two-Electron Energy =                 574.5131498759214992
    DFT Exchange-Correlation Energy =       0.0000000000000000
    Empirical Dispersion Energy =           0.0000000000000000
    PCM Polarization Energy =               0.0000000000000000
    EFP Energy =                            0.0000000000000000
    Total Energy =                       -379.7713892555482289
 Dipole X            :          0.0000000            0.0000000            0.0000000
 Dipole Y            :          0.0000000            0.0000000            0.0000000
 Dipole Z            :          0.0000000            0.0000000            0.0000000

  Lowdin Charges: (a.u.)
   Center  Symbol    Alpha    Beta     Spin     Total
       1     C     2.99562  2.99562  0.00000  0.00876
       2     C     2.99562  2.99562  0.00000  0.00876
       3     C     3.01584  3.01584  0.00000 -0.03169
       4     C     3.01584  3.01584  0.00000 -0.03169
       5     C     3.01611  3.01611  0.00000 -0.03221
       6     C     3.01611  3.01611  0.00000 -0.03221
       7     H     0.48597  0.48597  0.00000  0.02807
       8     H     0.48597  0.48597  0.00000  0.02807
       9     H     0.48497  0.48497  0.00000  0.03005
      10     H     0.48497  0.48497  0.00000  0.03005
      11     C     3.01139  3.01139  0.00000 -0.02278
      12     C     3.01139  3.01139  0.00000 -0.02278
      13     H     0.48648  0.48648  0.00000  0.02704
      14     H     0.48648  0.48648  0.00000  0.02704
      15     C     3.03484  3.03484  0.00000 -0.06968
      16     C     3.03484  3.03484  0.00000 -0.06968
      17     H     0.48472  0.48472  0.00000  0.03056
      18     H     0.48472  0.48472  0.00000  0.03056
      19     H     0.48406  0.48406  0.00000  0.03188
      20     H     0.48406  0.48406  0.00000  0.03188

  Total alpha = 35.00000, Total beta = 35.00000, Total charge =  0.00000

*** Psi4 exiting successfully. Buy a developer a beer!
