                              Psi4 1.0.54 Driver

  ==> Input File <==

--------------------------------------------------------------------------
molecule dvb {
    1 2
    C    -1.4152533224   0.2302217854   0.0000000000
    C     1.4152533224  -0.2302217854   0.0000000000
    C    -0.4951331558   1.3144608674   0.0000000000
    C     0.4951331558  -1.3144608674   0.0000000000
    C     0.8894090436   1.0909493743   0.0000000000
    C    -0.8894090436  -1.0909493743   0.0000000000
    H    -0.8795511985   2.3437343748   0.0000000000
    H     0.8795511985  -2.3437343748   0.0000000000
    H     1.5779041557   1.9450061275   0.0000000000
    H    -1.5779041557  -1.9450061275   0.0000000000
    C     2.8845844962  -0.5210893778   0.0000000000
    C    -2.8845844962   0.5210893778   0.0000000000
    H     3.1403356810  -1.5919605685   0.0000000000
    H    -3.1403356810   1.5919605685   0.0000000000
    C     3.8800428103   0.3822535424   0.0000000000
    C    -3.8800428103  -0.3822535424   0.0000000000
    H     3.6946765858   1.4624389570   0.0000000000
    H    -3.6946765858  -1.4624389570   0.0000000000
    H     4.9316453546   0.0711049543   0.0000000000
    H    -4.9316453546  -0.0711049543   0.0000000000
}

set {
    basis sto-3g
    reference rohf
    print_basis true
    print_mos true
}

scf_e, scf_wfn = energy('scf', return_wfn=True)
oeprop(scf_wfn, 'MULLIKEN_CHARGES', 'LOWDIN_CHARGES', 'MULTIPOLE(5)')
--------------------------------------------------------------------------

    Molecular point group: c2h

    Geometry (in Angstrom), charge = 1, multiplicity = 2:

       Center              X                  Y                   Z               Mass
    ------------   -----------------  -----------------  -----------------  -----------------
           C         -1.415253322400     0.230221785400     0.000000000000    12.000000000000
           C          1.415253322400    -0.230221785400     0.000000000000    12.000000000000
           C         -0.495133155800     1.314460867400     0.000000000000    12.000000000000
           C          0.495133155800    -1.314460867400     0.000000000000    12.000000000000
           C          0.889409043600     1.090949374300     0.000000000000    12.000000000000
           C         -0.889409043600    -1.090949374300     0.000000000000    12.000000000000
           H         -0.879551198500     2.343734374800     0.000000000000     1.007825032070
           H          0.879551198500    -2.343734374800     0.000000000000     1.007825032070
           H          1.577904155700     1.945006127500     0.000000000000     1.007825032070
           H         -1.577904155700    -1.945006127500     0.000000000000     1.007825032070
           C          2.884584496200    -0.521089377800     0.000000000000    12.000000000000
           C         -2.884584496200     0.521089377800     0.000000000000    12.000000000000
           H          3.140335681000    -1.591960568500     0.000000000000     1.007825032070
           H         -3.140335681000     1.591960568500     0.000000000000     1.007825032070
           C          3.880042810300     0.382253542400     0.000000000000    12.000000000000
           C         -3.880042810300    -0.382253542400     0.000000000000    12.000000000000
           H          3.694676585800     1.462438957000     0.000000000000     1.007825032070
           H         -3.694676585800    -1.462438957000     0.000000000000     1.007825032070
           H          4.931645354600     0.071104954300     0.000000000000     1.007825032070
           H         -4.931645354600    -0.071104954300     0.000000000000     1.007825032070

  Charge       = 1
  Multiplicity = 2
  Basis Set: STO-3G
  Basis Set:

    Orbital Energies (a.u.)
    -----------------------

    Doubly Occupied:

       1Bu   -11.297945     1Ag   -11.297894     2Bu   -11.249358
       2Ag   -11.249248     3Bu   -11.248786     3Ag   -11.248749
       4Ag   -11.237429     4Bu   -11.237429     5Bu   -11.219063
       5Ag   -11.219062     6Ag    -1.307073     6Bu    -1.223647
       7Ag    -1.166696     7Bu    -1.156670     8Bu    -1.110584
       8Ag    -0.998265     9Ag    -0.968666     9Bu    -0.913781
      10Ag    -0.892710    11Ag    -0.819400    10Bu    -0.801043
      11Bu    -0.767866    12Bu    -0.755503    12Ag    -0.738969
      13Bu    -0.726397    14Bu    -0.695878    13Ag    -0.679434
       1Au    -0.655501    15Bu    -0.633376    14Ag    -0.627585
      15Ag    -0.612542     1Bg    -0.552502     2Bg    -0.481998
       2Au    -0.480798

    Singly Occupied:

       3Bg    -0.311805

  @DF-ROHF Final Energy:  -379.56990126956612

   => Energetics <=

    Nuclear Repulsion Energy =            445.9369781142434022
    One-Electron Energy =               -1386.0237507816975722
    Two-Electron Energy =                 560.5168713978880533
    DFT Exchange-Correlation Energy =       0.0000000000000000
    Empirical Dispersion Energy =           0.0000000000000000
    PCM Polarization Energy =               0.0000000000000000
    EFP Energy =                            0.0000000000000000
    Total Energy =                       -379.5699012695661168
 Dipole X            :          0.0000000            0.0000000            0.0000000
 Dipole Y            :          0.0000000            0.0000000            0.0000000
 Dipole Z            :          0.0000000            0.0000000            0.0000000

  Lowdin Charges: (a.u.)
   Center  Symbol    Alpha    Beta     Spin     Total
       1     C     3.05011  2.81568  0.23443  0.13421
       2     C     3.05011  2.81568  0.23443  0.13421
       3     C     3.02687  2.96436  0.06252  0.00877
       4     C     3.02687  2.96436  0.06252  0.00877
       5     C     3.02864  2.96654  0.06210  0.00481
       6     C     3.02864  2.96654  0.06210  0.00481
       7     H     0.46449  0.46449  0.00000  0.07103
       8     H     0.46449  0.46449  0.00000  0.07103
       9     H     0.46605  0.46605  0.00000  0.06789
      10     H     0.46605  0.46605  0.00000  0.06789
      11     C     3.03308  2.99983  0.03325 -0.03291
      12     C     3.03308  2.99983  0.03325 -0.03291
      13     H     0.47110  0.47110  0.00000  0.05780
      14     H     0.47110  0.47110  0.00000  0.05780
      15     C     3.03173  2.92402  0.10771  0.04425
      16     C     3.03173  2.92402  0.10771  0.04425
      17     H     0.46788  0.46788  0.00000  0.06424
      18     H     0.46788  0.46788  0.00000  0.06424
      19     H     0.46005  0.46005  0.00000  0.07991
      20     H     0.46005  0.46005  0.00000  0.07991

  Total alpha = 35.00000, Total beta = 34.00000, Total charge =  1.00000

*** Psi4 exiting successfully. Buy a developer a beer!
