                              Psi4 1.0.54 Driver

  ==> Input File <==

--------------------------------------------------------------------------
molecule dvb {
    0 1
    C    -1.4152533224   0.2302217854   0.0000000000
    C     1.4152533224  -0.2302217854   0.0000000000
    C    -0.4951331558   1.3144608674   0.0000000000
    C     0.4951331558  -1.3144608674   0.0000000000
    C     0.8894090436   1.0909493743   0.0000000000
    C    -0.8894090436  -1.0909493743   0.0000000000
    H    -0.8795511985   2.3437343748   0.0000000000
    H     0.8795511985  -2.3437343748   0.0000000000
    H     1.5779041557   1.9450061275   0.0000000000
    H    -1.5779041557  -1.9450061275   0.0000000000
    C     2.8845844962  -0.5210893778   0.0000000000
    C    -2.8845844962   0.5210893778   0.0000000000
    H     3.1403356810  -1.5919605685   0.0000000000
    H    -3.1403356810   1.5919605685   0.0000000000
    C     3.8800428103   0.3822535424   0.0000000000
    C    -3.8800428103  -0.3822535424   0.0000000000
    H     3.6946765858   1.4624389570   0.0000000000
    H    -3.6946765858  -1.4624389570   0.0000000000
    H     4.9316453546   0.0711049543   0.0000000000
    H    -4.9316453546  -0.0711049543   0.0000000000
}

set {
    basis sto-3g
}

frequencies('scf', dertype='gradient')
--------------------------------------------------------------------------

    Molecular point group: c2h
  Charge       = 0
  Multiplicity = 1
  Basis Set: STO-3G
  Basis Set:
  @DF-RHF Final Energy:  -379.77133786787147
    Total Energy =                       -379.7713378678713525
    Molecular point group: c2h
  Basis Set: STO-3G
  Basis Set:
  Basis Set: STO-3G
  Basis Set:
  @DF-RHF Final Energy:  -379.77143893960857
    Total Energy =                       -379.7714389396085153
  Basis Set: STO-3G
  Basis Set:
  Basis Set: STO-3G
  Basis Set:
  @DF-RHF Final Energy:  -379.77139600039766
    Total Energy =                       -379.7713960003978855
  Basis Set: STO-3G
  Basis Set:
  Basis Set: STO-3G
  Basis Set:
  @DF-RHF Final Energy:  -379.77138051879763
    Total Energy =                       -379.7713805187976277
  Basis Set: STO-3G
  Basis Set:
  @DF-RHF Final Energy:  -379.77138206139091
    Total Energy =                       -379.7713820613909093
  @DF-RHF Final Energy:  -379.77139444463990
    Total Energy =                       -379.7713944446397818
  @DF-RHF Final Energy:  -379.77141739747799
    Total Energy =                       -379.7714173974779897
  @DF-RHF Final Energy:  -379.77135920226493
    Total Energy =                       -379.7713592022647617
  @DF-RHF Final Energy:  -379.77140009561919
    Total Energy =                       -379.7714000956191285
  @DF-RHF Final Energy:  -379.77137646643860
    Total Energy =                       -379.7713764664384826
  @DF-RHF Final Energy:  -379.77141581107662
    Total Energy =                       -379.7714158110766220
  @DF-RHF Final Energy:  -379.77136082690635
    Total Energy =                       -379.7713608269062888
  @DF-RHF Final Energy:  -379.77135179287041
    Total Energy =                       -379.7713517928705187
  @DF-RHF Final Energy:  -379.77142358684830
    Total Energy =                       -379.7714235868484138
  @DF-RHF Final Energy:  -379.77147617358560
    Total Energy =                       -379.7714761735854836
  @DF-RHF Final Energy:  -379.77129231560343
    Total Energy =                       -379.7712923156033185
  @DF-RHF Final Energy:  -379.77145612250587
    Total Energy =                       -379.7714561225058105
  @DF-RHF Final Energy:  -379.77131664097874
    Total Energy =                       -379.7713166409787391
  @DF-RHF Final Energy:  -379.77145444804137
    Total Energy =                       -379.7714544480413679
  @DF-RHF Final Energy:  -379.77131652987083
    Total Energy =                       -379.7713165298706599
  @DF-RHF Final Energy:  -379.77138883944389
    Total Energy =                       -379.7713888394440573
  @DF-RHF Final Energy:  -379.77138819507309
    Total Energy =                       -379.7713881950729728
  @DF-RHF Final Energy:  -379.77138850821825
    Total Energy =                       -379.7713885082182514
  @DF-RHF Final Energy:  -379.77138848738997
    Total Energy =                       -379.7713884873902543
  @DF-RHF Final Energy:  -379.77138815690125
    Total Energy =                       -379.7713881569011392
  @DF-RHF Final Energy:  -379.77138845516595
    Total Energy =                       -379.7713884551651518
  @DF-RHF Final Energy:  -379.77138838678502
    Total Energy =                       -379.7713883867849063
  @DF-RHF Final Energy:  -379.77138773019237
    Total Energy =                       -379.7713877301926004
  @DF-RHF Final Energy:  -379.77138441105092
    Total Energy =                       -379.7713844110509172
  @DF-RHF Final Energy:  -379.77138648712736
    Total Energy =                       -379.7713864871277565
  @DF-RHF Final Energy:  -379.77138560082949
    Total Energy =                       -379.7713856008291486
  @DF-RHF Final Energy:  -379.77138801244416
    Total Energy =                       -379.7713880124439356
  @DF-RHF Final Energy:  -379.77138762465148
    Total Energy =                       -379.7713876246511973
  @DF-RHF Final Energy:  -379.77138803343689
    Total Energy =                       -379.7713880334371197
  @DF-RHF Final Energy:  -379.77138427464354
    Total Energy =                       -379.7713842746435375
  @DF-RHF Final Energy:  -379.77138544330569
    Total Energy =                       -379.7713854433059169
  Basis Set: STO-3G
  Basis Set:
  @DF-RHF Final Energy:  -379.77138520107343
    Total Energy =                       -379.7713852010734854
  Basis Set: STO-3G
  Basis Set:
  Basis Set: STO-3G
  Basis Set:
  @DF-RHF Final Energy:  -379.77138610520632
    Total Energy =                       -379.7713861052061475
  Basis Set: STO-3G
  Basis Set:
  Basis Set: STO-3G
  Basis Set:
  @DF-RHF Final Energy:  -379.77138582284852
    Total Energy =                       -379.7713858228487425
  Basis Set: STO-3G
  Basis Set:
    Molecular point group: c2h
  Charge       = 0
  Multiplicity = 1
  Basis Set: STO-3G
  Basis Set:

    Orbital Energies (a.u.)
    -----------------------

    Doubly Occupied:

       1Bu   -11.040932     1Ag   -11.040869     2Bu   -11.031921
       2Ag   -11.031921     3Bu   -11.029276     3Ag   -11.029146
       4Bu   -11.028933     4Ag   -11.028910     5Bu   -11.017782
       5Ag   -11.017782     6Ag    -1.090293     6Bu    -1.020258
       7Ag    -0.974920     7Bu    -0.950307     8Bu    -0.909639
       8Ag    -0.799874     9Ag    -0.762813     9Bu    -0.727632
      10Ag    -0.696760    11Ag    -0.628021    10Bu    -0.605649
      11Bu    -0.572931    12Bu    -0.553568    12Ag    -0.553140
      13Bu    -0.525339    14Bu    -0.496654    13Ag    -0.492517
       1Au    -0.463677    15Bu    -0.446429    14Ag    -0.421637
      15Ag    -0.415609     1Bg    -0.376922     2Au    -0.315103
       2Bg    -0.278318     3Bg    -0.222155

  @DF-RHF Final Energy:  -379.77138925647608

   => Energetics <=

    Nuclear Repulsion Energy =            445.9369781142434590
    One-Electron Energy =               -1400.2214629893135225
    Two-Electron Energy =                 574.5130956185939795
    DFT Exchange-Correlation Energy =       0.0000000000000000
    Empirical Dispersion Energy =           0.0000000000000000
    PCM Polarization Energy =               0.0000000000000000
    EFP Energy =                            0.0000000000000000
    Total Energy =                       -379.7713892564761409
    Molecular point group: c2h

    Geometry (in Angstrom), charge = 0, multiplicity = 1:

       Center              X                  Y                   Z               Mass
    ------------   -----------------  -----------------  -----------------  -----------------
           C         -1.415253322400     0.230221785400     0.000000000000    12.000000000000
           C          1.415253322400    -0.230221785400     0.000000000000    12.000000000000
           C         -0.495133155800     1.314460867400     0.000000000000    12.000000000000
           C          0.495133155800    -1.314460867400     0.000000000000    12.000000000000
           C          0.889409043600     1.090949374300     0.000000000000    12.000000000000
           C         -0.889409043600    -1.090949374300     0.000000000000    12.000000000000
           H         -0.879551198500     2.343734374800     0.000000000000     1.007825032070
           H          0.879551198500    -2.343734374800     0.000000000000     1.007825032070
           H          1.577904155700     1.945006127500     0.000000000000     1.007825032070
           H         -1.577904155700    -1.945006127500     0.000000000000     1.007825032070
           C          2.884584496200    -0.521089377800     0.000000000000    12.000000000000
           C         -2.884584496200     0.521089377800     0.000000000000    12.000000000000
           H          3.140335681000    -1.591960568500     0.000000000000     1.007825032070
           H         -3.140335681000     1.591960568500     0.000000000000     1.007825032070
           C          3.880042810300     0.382253542400     0.000000000000    12.000000000000
           C         -3.880042810300    -0.382253542400     0.000000000000    12.000000000000
           H          3.694676585800     1.462438957000     0.000000000000     1.007825032070
           H         -3.694676585800    -1.462438957000     0.000000000000     1.007825032070
           H          4.931645354600     0.071104954300     0.000000000000     1.007825032070
           H         -4.931645354600    -0.071104954300     0.000000000000     1.007825032070

  Basis Set: STO-3G
  Basis Set:

  -Total Gradient:
     Atom            X                  Y                   Z
    ------   -----------------  -----------------  -----------------
       1       -0.024738708652     0.003911774522     0.000000000000
       2        0.024738708652    -0.003911774522     0.000000000000
       3       -0.002947205595     0.014262631615     0.000000000000
       4        0.002947205595    -0.014262631615     0.000000000000
       5        0.005571097218     0.013559496009     0.000000000000
       6       -0.005571097218    -0.013559496009     0.000000000000
       7       -0.005036050260     0.013076478302     0.000000000000
       8        0.005036050260    -0.013076478302     0.000000000000
       9        0.009865222631     0.009829448730     0.000000000000
      10       -0.009865222631    -0.009829448730     0.000000000000
      11       -0.032932165717    -0.017480940986     0.000000000000
      12        0.032932165717     0.017480940986     0.000000000000
      13        0.003226349489    -0.014103275718     0.000000000000
      14       -0.003226349489     0.014103275718     0.000000000000
      15        0.024017760440     0.021053111146     0.000000000000
      16       -0.024017760440    -0.021053111146     0.000000000000
      17       -0.003384500248     0.013513617791     0.000000000000
      18        0.003384500248    -0.013513617791     0.000000000000
      19        0.013255631347    -0.003909485228     0.000000000000
      20       -0.013255631347     0.003909485228     0.000000000000

*** Psi4 exiting successfully. Buy a developer a beer!
