                              Psi4 1.0.54 Driver

  ==> Input File <==

--------------------------------------------------------------------------
molecule water {
0 1
O
H 1 0.99
H 1 0.99 2 106.0
}

set {
    basis sto-3g
}

energy('ccsd')
--------------------------------------------------------------------------

    Molecular point group: c2v

    Geometry (in Angstrom), charge = 0, multiplicity = 1:

       Center              X                  Y                   Z               Mass
    ------------   -----------------  -----------------  -----------------  -----------------
           O          0.000000000000     0.000000000000    -0.066678531529    15.994914619560
           H          0.000000000000    -0.790649154947     0.529118341392     1.007825032070
           H          0.000000000000     0.790649154947     0.529118341392     1.007825032070

  Charge       = 0
  Multiplicity = 1
  Basis Set: STO-3G

    Orbital Energies (a.u.)
    -----------------------

    Doubly Occupied:

       1A1   -20.243755     2A1    -1.250645     1B2    -0.603166
       3A1    -0.445470     1B1    -0.388215

  @RHF Final Energy:   -74.96432876668044

   => Energetics <=

    Nuclear Repulsion Energy =              8.8870062258783467
    One-Electron Energy =                -121.8401691848001747
    Two-Electron Energy =                  37.9888341922413773
    DFT Exchange-Correlation Energy =       0.0000000000000000
    Empirical Dispersion Energy =           0.0000000000000000
    PCM Polarization Energy =               0.0000000000000000
    EFP Energy =                            0.0000000000000000
    Total Energy =                        -74.9643287666804383
      * MP2 total energy                      =  -75.002378705423382
      * CCSD total energy                     =  -75.017758178141122
*** Psi4 exiting successfully. Buy a developer a beer!
