                         Program Version 2.9.0 -  RELEASE  -
|  1> # Scan dihedral restricted B3LYP/sto-3g calc
|  2> ! RKS STO-3G B3LYP UseSym Opt
|  3>
|  4> %output
|  5>  PrintLevel Normal
|  6> end
|  7>
|  8> % geom
|  9>   Scan
| 10>     D 4 3 10 11 = -180.0, 180.0, 13
| 11>   end
| 12> end
| 13>
| 14> * xyz 0 1
| 15> C          1.43509       -0.04780       -0.00010
| 16> C          0.73780        1.19228       -0.00002
| 17> C         -0.66368        1.24151       -0.00001
| 18> C         -1.43515        0.04767        0.00006
| 19> C         -0.73787       -1.19242       -0.00002
| 20> C          0.66362       -1.24165       -0.00002
| 21> H          1.31386        2.12801        0.00015
| 22> H         -1.16822        2.21645        0.00014
| 23> H         -1.31393       -2.12815        0.00006
| 24> H          1.16816       -2.21659        0.00006
| 25> C         -2.93303        0.04344       -0.00002
| 26> C         -3.73731        1.12067        0.00003
| 27> H         -3.38578       -0.95970       -0.00014
| 28> H         -4.82871        1.01517       -0.00009
| 29> H         -3.35133        2.14657       -0.00007
| 30> C          2.93296       -0.04343        0.00003
| 31> C          3.73745       -1.12051       -0.00004
| 32> H          3.38556        0.95978       -0.00003
| 33> H          4.82882       -1.01477       -0.00007
| 34> H          3.35169       -2.14649        0.00009
| 35> *
| 36>
| 37>
| 38>                          ****END OF INPUT****
 Total Charge           Charge          ....    0
 Multiplicity           Mult            ....    1
 Number of Electrons    NEL             ....   70
FINAL SINGLE POINT ENERGY     -382.050784656
                    ***********************HURRAY********************
FINAL SINGLE POINT ENERGY     -382.050784743
FINAL SINGLE POINT ENERGY     -382.040006953
FINAL SINGLE POINT ENERGY     -382.048739359
FINAL SINGLE POINT ENERGY     -382.049398574
FINAL SINGLE POINT ENERGY     -382.049453890
FINAL SINGLE POINT ENERGY     -382.049467317
FINAL SINGLE POINT ENERGY     -382.049470640
                    ***********************HURRAY********************
FINAL SINGLE POINT ENERGY     -382.049470774
FINAL SINGLE POINT ENERGY     -382.035310396
FINAL SINGLE POINT ENERGY     -382.049474115
FINAL SINGLE POINT ENERGY     -382.049487771
FINAL SINGLE POINT ENERGY     -382.049488761
FINAL SINGLE POINT ENERGY     -382.041294651
FINAL SINGLE POINT ENERGY     -382.050026443
FINAL SINGLE POINT ENERGY     -382.050745807
FINAL SINGLE POINT ENERGY     -382.050782748
FINAL SINGLE POINT ENERGY     -382.050788883
FINAL SINGLE POINT ENERGY     -382.050790578

CARTESIAN COORDINATES (ANGSTROEM)
---------------------------------
  C     -0.086517    0.166712    1.423648
  C      0.565457    1.131225    0.605852
  C      0.652152    0.970158   -0.784632
  C      0.088524   -0.167764   -1.423340
  C     -0.563263   -1.132391   -0.605518
  C     -0.650013   -0.971294    0.784953
  H      1.008409    2.019004    1.078165
  H      1.162547    1.734763   -1.384635
  H     -1.005976   -2.020297   -1.077818
  H     -1.160068   -1.736055    1.385048
  C      0.152548   -0.388759   -2.903480
  C      0.727259    0.419739   -3.811055
  H     -0.330215   -1.316439   -3.246533
  H      0.721849    0.170105   -4.878694
  H      1.225072    1.357267   -3.537251
  C     -0.150926    0.387935    2.903773
  C     -0.731754   -0.417284    3.810403
  H      0.336249    1.313037    3.247530
  H     -0.726523   -0.167507    4.878007
  H     -1.234367   -1.351977    3.535765

 Multiplicity           Mult            ....    1
 Number of Electrons    NEL             ....   70
 Basis Dimension        Dim             ....   60

ORBITAL ENERGIES
----------------

  NO   OCC          E(Eh)            E(eV)
   0   2.0000     -10.016259      -272.5563
   1   2.0000     -10.016212      -272.5550
   2   2.0000     -10.004125      -272.2261
   3   2.0000     -10.004123      -272.2260
   4   2.0000     -10.002806      -272.1902
   5   2.0000     -10.002803      -272.1901
   6   2.0000     -10.002080      -272.1704
   7   2.0000     -10.001942      -272.1667
   8   2.0000      -9.988406      -271.7983
   9   2.0000      -9.988404      -271.7983
  10   2.0000      -0.805728       -21.9250
  11   2.0000      -0.750239       -20.4151
  12   2.0000      -0.714229       -19.4352
  13   2.0000      -0.696030       -18.9400
  14   2.0000      -0.663788       -18.0626
  15   2.0000      -0.584993       -15.9185
  16   2.0000      -0.555197       -15.1077
  17   2.0000      -0.527993       -14.3674
  18   2.0000      -0.506462       -13.7815
  19   2.0000      -0.453691       -12.3456
  20   2.0000      -0.435633       -11.8542
  21   2.0000      -0.406917       -11.0728
  22   2.0000      -0.394200       -10.7267
  23   2.0000      -0.392402       -10.6778
  24   2.0000      -0.370245       -10.0749
  25   2.0000      -0.347439        -9.4543
  26   2.0000      -0.343544        -9.3483
  27   2.0000      -0.320787        -8.7291
  28   2.0000      -0.307524        -8.3681
  29   2.0000      -0.289095        -7.8667
  30   2.0000      -0.283722        -7.7205
  31   2.0000      -0.259855        -7.0710
  32   2.0000      -0.208791        -5.6815
  33   2.0000      -0.191415        -5.2087
  34   2.0000      -0.149440        -4.0665
  35   0.0000       0.041036         1.1167
  36   0.0000       0.093925         2.5558
  37   0.0000       0.114193         3.1074
  38   0.0000       0.185760         5.0548
  39   0.0000       0.276026         7.5111

MULLIKEN ATOMIC CHARGES
-----------------------
   0 C :   -0.004395
   1 C :   -0.076374
   2 C :   -0.077001
   3 C :   -0.004399
   4 C :   -0.076372
   5 C :   -0.077007
   6 H :    0.077401
   7 H :    0.079008
   8 H :    0.077404
   9 H :    0.079008
  10 C :   -0.076272
  11 C :   -0.154396
  12 H :    0.076719
  13 H :    0.079091
  14 H :    0.076214
  15 C :   -0.076264
  16 C :   -0.154399
  17 H :    0.076723
  18 H :    0.079091
  19 H :    0.076222
Sum of atomic charges:   -0.0000000

LOEWDIN ATOMIC CHARGES
----------------------
   0 C :    0.003764
   1 C :   -0.043751
   2 C :   -0.044148
   3 C :    0.003759
   4 C :   -0.043748
   5 C :   -0.044155
   6 H :    0.041744
   7 H :    0.043530
   8 H :    0.041746
   9 H :    0.043531
  10 C :   -0.038870
  11 C :   -0.091293
  12 H :    0.041049
  13 H :    0.044862
  14 H :    0.043108
  15 C :   -0.038863
  16 C :   -0.091296
  17 H :    0.041052
  18 H :    0.044863
  19 H :    0.043117

  Mayer bond orders larger than 0.1
B(  0-C ,  1-C ) :   1.3626 B(  0-C ,  5-C ) :   1.3654 B(  0-C , 15-C ) :   1.0665
B(  1-C ,  2-C ) :   1.4652 B(  1-C ,  6-H ) :   0.9614 B(  2-C ,  3-C ) :   1.3655
B(  2-C ,  5-C ) :   0.1019 B(  2-C ,  7-H ) :   0.9596 B(  3-C ,  4-C ) :   1.3625
B(  3-C , 10-C ) :   1.0665 B(  4-C ,  5-C ) :   1.4653 B(  4-C ,  8-H ) :   0.9614
B(  5-C ,  9-H ) :   0.9596 B( 10-C , 11-C ) :   1.9012 B( 10-C , 12-H ) :   0.9591
B( 11-C , 13-H ) :   0.9693 B( 11-C , 14-H ) :   0.9665 B( 15-C , 16-C ) :   1.9012
B( 15-C , 17-H ) :   0.9591 B( 16-C , 18-H ) :   0.9693 B( 16-C , 19-H ) :   0.9665

FINAL SINGLE POINT ENERGY     -382.050790748

DIPOLE MOMENT
-------------
                                X             Y             Z
Electronic contribution:      0.00557      -0.00309       0.00097
Nuclear contribution   :     -0.00562       0.00314      -0.00088
                        -----------------------------------------
Total Dipole Moment    :     -0.00005       0.00005       0.00009
                        -----------------------------------------
Magnitude (a.u.)       :      0.00011
Magnitude (Debye)      :      0.00028

                             ****ORCA TERMINATED NORMALLY****
TOTAL RUN TIME: 0 days 0 hours 42 minutes 36 seconds 14 msec
