                         Program Version 5.0.0 -  RELEASE  -
|  1> ! rks b3lyp sto-3g usesym numfreq
|  2>
|  3> %elprop
|  4>  polar 1
|  5>  end
|  6>
|  7> * xyz 0 1
|  8>  C       -1.4152533224   0.2302217854   0.0000000000
|  9>  C        1.4152533224  -0.2302217854   0.0000000000
| 10>  C       -0.4951331558   1.3144608674   0.0000000000
| 11>  C        0.4951331558  -1.3144608674   0.0000000000
| 12>  C        0.8894090436   1.0909493743   0.0000000000
| 13>  C       -0.8894090436  -1.0909493743   0.0000000000
| 14>  H       -0.8795511985   2.3437343748   0.0000000000
| 15>  H        0.8795511985  -2.3437343748   0.0000000000
| 16>  H        1.5779041557   1.9450061275   0.0000000000
| 17>  H       -1.5779041557  -1.9450061275   0.0000000000
| 18>  C        2.8845844962  -0.5210893778   0.0000000000
| 19>  C       -2.8845844962   0.5210893778   0.0000000000
| 20>  H        3.1403356810  -1.5919605685   0.0000000000
| 21>  H       -3.1403356810   1.5919605685   0.0000000000
| 22>  C        3.8800428103   0.3822535424   0.0000000000
| 23>  C       -3.8800428103  -0.3822535424   0.0000000000
| 24>  H        3.6946765858   1.4624389570   0.0000000000
| 25>  H       -3.6946765858  -1.4624389570   0.0000000000
| 26>  H        4.9316453546   0.0711049543   0.0000000000
| 27>  H       -4.9316453546  -0.0711049543   0.0000000000
| 28> *
| 29> %pal
| 30>  nprocs 4
| 31> end
| 32>
| 33>                          ****END OF INPUT****

CARTESIAN COORDINATES (ANGSTROEM)
---------------------------------
  C     -1.415253    0.230222    0.000000
  C      1.415253   -0.230222    0.000000
  C     -0.495133    1.314461    0.000000
  C      0.495133   -1.314461    0.000000
  C      0.889409    1.090949    0.000000
  C     -0.889409   -1.090949    0.000000
  H     -0.879551    2.343734    0.000000
  H      0.879551   -2.343734    0.000000
  H      1.577904    1.945006    0.000000
  H     -1.577904   -1.945006    0.000000
  C      2.884584   -0.521089    0.000000
  C     -2.884584    0.521089    0.000000
  H      3.140336   -1.591961    0.000000
  H     -3.140336    1.591961    0.000000
  C      3.880043    0.382254    0.000000
  C     -3.880043   -0.382254    0.000000
  H      3.694677    1.462439    0.000000
  H     -3.694677   -1.462439    0.000000
  H      4.931645    0.071105    0.000000
  H     -4.931645   -0.071105    0.000000

 Total Charge           Charge          ....    0
 Multiplicity           Mult            ....    1
 Number of Electrons    NEL             ....   70
 Basis Dimension        Dim             ....   60

ORBITAL ENERGIES
----------------

  NO   OCC          E(Eh)            E(eV)
   0   2.0000     -10.016733      -272.5692
   1   2.0000     -10.016684      -272.5678
   2   2.0000     -10.004451      -272.2350
   3   2.0000     -10.004450      -272.2349
   4   2.0000     -10.003401      -272.2064
   5   2.0000     -10.003399      -272.2063
   6   2.0000     -10.002750      -272.1887
   7   2.0000     -10.002608      -272.1848
   8   2.0000      -9.988700      -271.8063
   9   2.0000      -9.988700      -271.8063
  10   2.0000      -0.805848       -21.9282
  11   2.0000      -0.750295       -20.4166
  12   2.0000      -0.714220       -19.4349
  13   2.0000      -0.696292       -18.9471
  14   2.0000      -0.663678       -18.0596
  15   2.0000      -0.584891       -15.9157
  16   2.0000      -0.555524       -15.1166
  17   2.0000      -0.527795       -14.3620
  18   2.0000      -0.506323       -13.7778
  19   2.0000      -0.453978       -12.3534
  20   2.0000      -0.435574       -11.8526
  21   2.0000      -0.407380       -11.0854
  22   2.0000      -0.394080       -10.7235
  23   2.0000      -0.392311       -10.6753
  24   2.0000      -0.370803       -10.0901
  25   2.0000      -0.347302        -9.4506
  26   2.0000      -0.343395        -9.3442
  27   2.0000      -0.320882        -8.7316
  28   2.0000      -0.307443        -8.3659
  29   2.0000      -0.289355        -7.8737
  30   2.0000      -0.283875        -7.7246
  31   2.0000      -0.259860        -7.0711
  32   2.0000      -0.208741        -5.6801
  33   2.0000      -0.191560        -5.2126
  34   2.0000      -0.149388        -4.0651
  35   0.0000       0.041155         1.1199
  36   0.0000       0.093772         2.5517
  37   0.0000       0.114378         3.1124
  38   0.0000       0.185864         5.0576
  39   0.0000       0.275990         7.5101

MULLIKEN ATOMIC CHARGES
-----------------------
   0 C :   -0.004317
   1 C :   -0.004317
   2 C :   -0.076530
   3 C :   -0.076530
   4 C :   -0.076892
   5 C :   -0.076892
   6 H :    0.077763
   7 H :    0.077763
   8 H :    0.079094
   9 H :    0.079094
  10 C :   -0.076156
  11 C :   -0.076156
  12 H :    0.076471
  13 H :    0.076471
  14 C :   -0.154408
  15 C :   -0.154408
  16 H :    0.075905
  17 H :    0.075905
  18 H :    0.079070
  19 H :    0.079070
Sum of atomic charges:    0.0000000

LOEWDIN ATOMIC CHARGES
----------------------
   0 C :    0.003798
   1 C :    0.003798
   2 C :   -0.043793
   3 C :   -0.043793
   4 C :   -0.044042
   5 C :   -0.044042
   6 H :    0.042052
   7 H :    0.042052
   8 H :    0.043587
   9 H :    0.043587
  10 C :   -0.038838
  11 C :   -0.038838
  12 H :    0.040882
  13 H :    0.040882
  14 C :   -0.091407
  15 C :   -0.091407
  16 H :    0.042885
  17 H :    0.042885
  18 H :    0.044876
  19 H :    0.044876

  Mayer bond orders larger than 0.100000
B(  0-C ,  2-C ) :   1.3631 B(  0-C ,  5-C ) :   1.3652 B(  0-C , 11-C ) :   1.0664
B(  1-C ,  3-C ) :   1.3631 B(  1-C ,  4-C ) :   1.3652 B(  1-C , 10-C ) :   1.0664
B(  2-C ,  4-C ) :   1.4652 B(  2-C ,  6-H ) :   0.9614 B(  3-C ,  5-C ) :   1.4652
B(  3-C ,  7-H ) :   0.9614 B(  4-C ,  5-C ) :   0.1022 B(  4-C ,  8-H ) :   0.9595
B(  5-C ,  9-H ) :   0.9595 B( 10-C , 12-H ) :   0.9592 B( 10-C , 14-C ) :   1.9013
B( 11-C , 13-H ) :   0.9592 B( 11-C , 15-C ) :   1.9013 B( 14-C , 16-H ) :   0.9664
B( 14-C , 18-H ) :   0.9693 B( 15-C , 17-H ) :   0.9664 B( 15-C , 19-H ) :   0.9693

FINAL SINGLE POINT ENERGY      -382.055108639253

DIPOLE MOMENT
-------------
                                X             Y             Z
Electronic contribution:      0.00000      -0.00000       0.00000
Nuclear contribution   :      0.00000       0.00000       0.00000
                        -----------------------------------------
Total Dipole Moment    :      0.00000      -0.00000       0.00000
                        -----------------------------------------
Magnitude (a.u.)       :      0.00000
Magnitude (Debye)      :      0.00000

VIBRATIONAL FREQUENCIES
-----------------------

Scaling factor for frequencies =  1.000000000 (already applied!)

   0:         0.00 cm**-1
   1:         0.00 cm**-1
   2:         0.00 cm**-1
   3:         0.00 cm**-1
   4:         0.00 cm**-1
   5:         0.00 cm**-1
   6:        77.70 cm**-1
   7:       121.66 cm**-1
   8:       179.68 cm**-1
   9:       184.49 cm**-1
  10:       263.20 cm**-1
  11:       315.73 cm**-1
  12:       408.03 cm**-1
  13:       434.10 cm**-1
  14:       478.14 cm**-1
  15:       485.40 cm**-1
  16:       577.36 cm**-1
  17:       666.01 cm**-1
  18:       673.19 cm**-1
  19:       716.92 cm**-1
  20:       734.44 cm**-1
  21:       813.44 cm**-1
  22:       861.49 cm**-1
  23:       899.45 cm**-1
  24:       900.88 cm**-1
  25:       983.87 cm**-1
  26:       984.00 cm**-1
  27:      1021.32 cm**-1
  28:      1039.54 cm**-1
  29:      1073.17 cm**-1
  30:      1100.98 cm**-1
  31:      1109.04 cm**-1
  32:      1110.27 cm**-1
  33:      1110.41 cm**-1
  34:      1202.36 cm**-1
  35:      1260.41 cm**-1
  36:      1285.07 cm**-1
  37:      1295.36 cm**-1
  38:      1350.13 cm**-1
  39:      1397.68 cm**-1
  40:      1421.28 cm**-1
  41:      1426.79 cm**-1
  42:      1513.54 cm**-1
  43:      1564.05 cm**-1
  44:      1573.55 cm**-1
  45:      1638.91 cm**-1
  46:      1689.55 cm**-1
  47:      1737.78 cm**-1
  48:      1813.70 cm**-1
  49:      1814.69 cm**-1
  50:      3393.54 cm**-1
  51:      3394.38 cm**-1
  52:      3430.83 cm**-1
  53:      3430.95 cm**-1
  54:      3447.46 cm**-1
  55:      3450.24 cm**-1
  56:      3470.61 cm**-1
  57:      3473.08 cm**-1
  58:      3546.05 cm**-1
  59:      3546.07 cm**-1

IR SPECTRUM
-----------

 Mode   freq       eps      Int      T**2         TX        TY        TZ
       cm**-1   L/(mol*cm) km/mol    a.u.
----------------------------------------------------------------------------
  6:     77.70   0.000015    0.08  0.000062  ( 0.000000  0.000000 -0.007878)
  7:    121.66   0.000000    0.00  0.000000  ( 0.000000  0.000000  0.000000)
  8:    179.68   0.000082    0.41  0.000142  (-0.011457 -0.003212 -0.000000)
  9:    184.49   0.000051    0.26  0.000085  (-0.000000  0.000000  0.009243)
 10:    263.20   0.000000    0.00  0.000000  (-0.000000 -0.000000  0.000000)
 11:    315.73   0.000000    0.00  0.000000  (-0.000000  0.000000 -0.000000)
 12:    408.03   0.000000    0.00  0.000000  ( 0.000000  0.000000  0.000000)
 13:    434.10   0.000017    0.09  0.000012  (-0.000000 -0.000000  0.003515)
 14:    478.14   0.001164    5.88  0.000760  ( 0.000000  0.000000 -0.027559)
 15:    485.40   0.000383    1.94  0.000246  (-0.014796 -0.005223 -0.000000)
 16:    577.36   0.000000    0.00  0.000000  ( 0.000000 -0.000000  0.000000)
 17:    666.01   0.000000    0.00  0.000000  (-0.000000  0.000000 -0.000000)
 18:    673.19   0.000000    0.00  0.000000  ( 0.000000  0.000000  0.000000)
 19:    716.92   0.000075    0.38  0.000033  ( 0.000000 -0.000000  0.005704)
 20:    734.44   0.000730    3.69  0.000310  ( 0.017581  0.001124 -0.000000)
 21:    813.44   0.000000    0.00  0.000000  ( 0.000000 -0.000000 -0.000000)
 22:    861.49   0.000000    0.00  0.000000  (-0.000000  0.000000  0.000000)
 23:    899.45   0.000000    0.00  0.000000  ( 0.000000  0.000000 -0.000011)
 24:    900.88   0.005374   27.16  0.001861  ( 0.000000 -0.000000 -0.043144)
 25:    983.87   0.000000    0.00  0.000000  (-0.000000  0.000000 -0.000001)
 26:    984.00   0.007303   36.91  0.002316  (-0.000000 -0.000000  0.048125)
 27:   1021.32   0.000000    0.00  0.000000  (-0.000000  0.000000 -0.000000)
 28:   1039.54   0.000001    0.00  0.000000  (-0.000000 -0.000000  0.000495)
 29:   1073.17   0.000154    0.78  0.000045  ( 0.006318  0.002195 -0.000000)
 30:   1100.98   0.001599    8.08  0.000453  ( 0.020809 -0.004500  0.000001)
 31:   1109.04   0.000000    0.00  0.000000  (-0.000001  0.000000  0.000003)
 32:   1110.27   0.002633   13.31  0.000740  (-0.000001  0.000000  0.027205)
 33:   1110.41   0.000000    0.00  0.000000  ( 0.000000  0.000000  0.000001)
 34:   1202.36   0.000497    2.51  0.000129  ( 0.008167  0.007890 -0.000000)
 35:   1260.41   0.000000    0.00  0.000000  (-0.000000  0.000000 -0.000000)
 36:   1285.07   0.000043    0.22  0.000010  (-0.000470 -0.003197 -0.000000)
 37:   1295.36   0.000000    0.00  0.000000  (-0.000000  0.000000  0.000000)
 38:   1350.13   0.001842    9.31  0.000426  ( 0.020607 -0.000999  0.000000)
 39:   1397.68   0.000000    0.00  0.000000  (-0.000000 -0.000000  0.000000)
 40:   1421.28   0.001714    8.66  0.000376  (-0.018625 -0.005420 -0.000000)
 41:   1426.79   0.000000    0.00  0.000000  ( 0.000001  0.000000  0.000000)
 42:   1513.54   0.003775   19.08  0.000778  (-0.005538  0.027345 -0.000000)
 43:   1564.05   0.000000    0.00  0.000000  (-0.000000 -0.000000  0.000000)
 44:   1573.55   0.000008    0.04  0.000002  (-0.000886  0.000882 -0.000000)
 45:   1638.91   0.003090   15.62  0.000588  ( 0.024076  0.002953  0.000000)
 46:   1689.55   0.000000    0.00  0.000000  (-0.000000 -0.000000 -0.000000)
 47:   1737.78   0.000000    0.00  0.000000  (-0.000000  0.000000 -0.000000)
 48:   1813.70   0.000000    0.00  0.000000  ( 0.000000  0.000000  0.000000)
 49:   1814.69   0.000219    1.10  0.000038  ( 0.000338  0.006122  0.000000)
 50:   3393.54   0.018724   94.62  0.001722  ( 0.040383  0.009539  0.000000)
 51:   3394.38   0.000000    0.00  0.000000  ( 0.000006  0.000002 -0.000000)
 52:   3430.83   0.000000    0.00  0.000000  (-0.000008  0.000002 -0.000000)
 53:   3430.95   0.001211    6.12  0.000110  (-0.010145  0.002692 -0.000000)
 54:   3447.46   0.000131    0.66  0.000012  (-0.000312  0.003428  0.000000)
 55:   3450.24   0.000000    0.00  0.000000  ( 0.000000  0.000000  0.000000)
 56:   3470.61   0.000851    4.30  0.000077  (-0.003065 -0.008196  0.000000)
 57:   3473.08   0.000000    0.00  0.000000  (-0.000000 -0.000001  0.000000)
 58:   3546.05   0.000010    0.05  0.000001  (-0.000915 -0.000018  0.000000)
 59:   3546.07   0.000000    0.00  0.000000  (-0.000005 -0.000000  0.000000)

--------------------------
THERMOCHEMISTRY AT 298.15K
--------------------------

Temperature         ... 298.15 K
Pressure            ... 1.00 atm
Total Mass          ... 130.19 AMU

Throughout the following assumptions are being made:
  (1) The electronic state is orbitally nondegenerate
  (2) There are no thermally accessible electronically excited states
  (3) Hindered rotations indicated by low frequency modes are not
      treated as such but are treated as vibrations and this may
      cause some error
  (4) All equations used are the standard statistical mechanics
      equations for an ideal gas
  (5) All vibrations are strictly harmonic

freq.      77.70  E(vib)   ...       0.49
freq.     121.66  E(vib)   ...       0.44
freq.     179.68  E(vib)   ...       0.37
freq.     184.49  E(vib)   ...       0.37
freq.     263.20  E(vib)   ...       0.29
freq.     315.73  E(vib)   ...       0.25
freq.     408.03  E(vib)   ...       0.19
freq.     434.10  E(vib)   ...       0.17
freq.     478.14  E(vib)   ...       0.15
freq.     485.40  E(vib)   ...       0.15
freq.     577.36  E(vib)   ...       0.11
freq.     666.01  E(vib)   ...       0.08
freq.     673.19  E(vib)   ...       0.08
freq.     716.92  E(vib)   ...       0.07
freq.     734.44  E(vib)   ...       0.06
freq.     813.44  E(vib)   ...       0.05
freq.     861.49  E(vib)   ...       0.04
freq.     899.45  E(vib)   ...       0.03
freq.     900.88  E(vib)   ...       0.03
freq.     983.87  E(vib)   ...       0.02
freq.     984.00  E(vib)   ...       0.02
freq.    1021.32  E(vib)   ...       0.02
freq.    1039.54  E(vib)   ...       0.02
freq.    1073.17  E(vib)   ...       0.02
freq.    1100.98  E(vib)   ...       0.02
freq.    1109.04  E(vib)   ...       0.02
freq.    1110.27  E(vib)   ...       0.02
freq.    1110.41  E(vib)   ...       0.02
freq.    1202.36  E(vib)   ...       0.01
freq.    1260.41  E(vib)   ...       0.01
freq.    1285.07  E(vib)   ...       0.01
freq.    1295.36  E(vib)   ...       0.01
freq.    1350.13  E(vib)   ...       0.01
freq.    1397.68  E(vib)   ...       0.00
freq.    1421.28  E(vib)   ...       0.00
freq.    1426.79  E(vib)   ...       0.00
freq.    1513.54  E(vib)   ...       0.00
freq.    1564.05  E(vib)   ...       0.00
freq.    1573.55  E(vib)   ...       0.00
freq.    1638.91  E(vib)   ...       0.00
freq.    1689.55  E(vib)   ...       0.00
freq.    1737.78  E(vib)   ...       0.00
freq.    1813.70  E(vib)   ...       0.00
freq.    1814.69  E(vib)   ...       0.00
freq.    3393.54  E(vib)   ...       0.00
freq.    3394.38  E(vib)   ...       0.00
freq.    3430.83  E(vib)   ...       0.00
freq.    3430.95  E(vib)   ...       0.00
freq.    3447.46  E(vib)   ...       0.00
freq.    3450.24  E(vib)   ...       0.00
freq.    3470.61  E(vib)   ...       0.00
freq.    3473.08  E(vib)   ...       0.00
freq.    3546.05  E(vib)   ...       0.00
freq.    3546.07  E(vib)   ...       0.00

------------
INNER ENERGY
------------

The inner energy is: U= E(el) + E(ZPE) + E(vib) + E(rot) + E(trans)
    E(el)   - is the total energy from the electronic structure calculation
              = E(kin-el) + E(nuc-el) + E(el-el) + E(nuc-nuc)
    E(ZPE)  - the the zero temperature vibrational energy from the frequency calculation
    E(vib)  - the the finite temperature correction to E(ZPE) due to population
              of excited vibrational states
    E(rot)  - is the rotational thermal energy
    E(trans)- is the translational thermal energy

Summary of contributions to the inner energy U:
Electronic energy                ...   -382.05510864 Eh
Zero point energy                ...      0.17745097 Eh     111.35 kcal/mol
Thermal vibrational correction   ...      0.00582281 Eh       3.65 kcal/mol
Thermal rotational correction    ...      0.00141627 Eh       0.89 kcal/mol
Thermal translational correction ...      0.00141627 Eh       0.89 kcal/mol
-----------------------------------------------------------------------
Total thermal energy                   -381.86900231 Eh

Summary of corrections to the electronic energy:
(perhaps to be used in another calculation)
Total thermal correction                  0.00865536 Eh       5.43 kcal/mol
Non-thermal (ZPE) correction              0.17745097 Eh     111.35 kcal/mol
-----------------------------------------------------------------------
Total correction                          0.18610633 Eh     116.78 kcal/mol

--------
ENTHALPY
--------

The enthalpy is H = U + kB*T
                kB is Boltzmann's constant
Total free energy                 ...   -381.86900231 Eh
Thermal Enthalpy correction       ...      0.00094421 Eh       0.59 kcal/mol
-----------------------------------------------------------------------
Total Enthalpy                    ...   -381.86805810 Eh

Note: Rotational entropy computed according to Herzberg
Infrared and Raman Spectra, Chapter V,1, Van Nostrand Reinhold, 1945
Point Group:  C2h, Symmetry Number:   2
Rotational constants in cm-1:     0.153923     0.022856     0.019901

Vibrational entropy computed according to the QRRHO of S. Grimme
Chem.Eur.J. 2012 18 9955

-------
ENTROPY
-------

The entropy contributions are T*S = T*(S(el)+S(vib)+S(rot)+S(trans))
     S(el)   - electronic entropy
     S(vib)  - vibrational entropy
     S(rot)  - rotational entropy
     S(trans)- translational entropy
The entropies will be listed as multiplied by the temperature to get
units of energy

Electronic entropy                ...      0.00000000 Eh      0.00 kcal/mol
Vibrational entropy               ...      0.00967502 Eh      6.07 kcal/mol
Rotational entropy                ...      0.01337276 Eh      8.39 kcal/mol
Translational entropy             ...      0.01924489 Eh     12.08 kcal/mol
-----------------------------------------------------------------------
Final entropy term                ...      0.04229268 Eh     26.54 kcal/mol

In case the symmetry of your molecule has not been determined correctly
or in case you have a reason to use a different symmetry number we print
out the resulting rotational entropy values for sn=1,12 :
 --------------------------------------------------------
|  sn= 1 | S(rot)=       0.01402722 Eh      8.80 kcal/mol|
|  sn= 2 | S(rot)=       0.01337276 Eh      8.39 kcal/mol|
|  sn= 3 | S(rot)=       0.01298993 Eh      8.15 kcal/mol|
|  sn= 4 | S(rot)=       0.01271831 Eh      7.98 kcal/mol|
|  sn= 5 | S(rot)=       0.01250762 Eh      7.85 kcal/mol|
|  sn= 6 | S(rot)=       0.01233548 Eh      7.74 kcal/mol|
|  sn= 7 | S(rot)=       0.01218993 Eh      7.65 kcal/mol|
|  sn= 8 | S(rot)=       0.01206385 Eh      7.57 kcal/mol|
|  sn= 9 | S(rot)=       0.01195264 Eh      7.50 kcal/mol|
|  sn=10 | S(rot)=       0.01185316 Eh      7.44 kcal/mol|
|  sn=11 | S(rot)=       0.01176317 Eh      7.38 kcal/mol|
|  sn=12 | S(rot)=       0.01168102 Eh      7.33 kcal/mol|
 --------------------------------------------------------

                             ****ORCA TERMINATED NORMALLY****
TOTAL RUN TIME: 0 days 0 hours 15 minutes 18 seconds 268 msec
