                         Program Version 5.0.0 -  RELEASE  -
|  1> ! TightSCF STO-3G RIJCOSX AutoAux
|  2>
|  3> % rocis
|  4>     NRoots  5
|  5>     MaxCore 2500
|  6>     MaxDim  50
|  7>     DoRI    true
|  8>     SOC     true
|  9>     DoHigherMult true
| 10>     DoQuad      true
| 11>     OrbWin = 0, 0, 0, 2000
| 12> end
| 13>
| 14> * xyz 1 2
| 15> 	C                  0.27867948   -1.36683162    0.00000000
| 16> 	C                  1.32303041   -0.44173575    0.00000000
| 17> 	C                  1.04434506    0.92484978    0.00000000
| 18> 	C                 -0.27867948    1.36683162    0.00000000
| 19> 	C                 -1.32303041    0.44173575    0.00000000
| 20> 	C                 -1.04434506   -0.92484978    0.00000000
| 21> 	H                  2.36595443   -0.79037726    0.00000000
| 22> 	H                  1.86746094    1.65407997    0.00000000
| 23> 	H                 -2.36595443    0.79037726    0.00000000
| 24> 	H                 -1.86746094   -1.65407997    0.00000000
| 25> 	C                 -0.58659169    2.87589931    0.00000000
| 26> 	C                  0.36350188    3.80076420    0.00000000
| 27> 	H                 -1.65647768    3.12394312    0.00000000
| 28> 	H                  0.14429560    4.87693235    0.00000000
| 29> 	H                  1.43338788    3.55272039    0.00000000
| 30> 	C                  0.58659169   -2.87589931    0.00000000
| 31> 	C                 -0.36350188   -3.80076420    0.00000000
| 32> 	H                  1.65647768   -3.12394312    0.00000000
| 33> 	H                 -0.14429560   -4.87693235    0.00000000
| 34> 	H                 -1.43338788   -3.55272039    0.00000000
| 35> *
| 36> %pal
| 37>  nprocs 4
| 38> end
| 39>
| 40>                          ****END OF INPUT****

CARTESIAN COORDINATES (ANGSTROEM)
---------------------------------
  C      0.278679   -1.366832    0.000000
  C      1.323030   -0.441736    0.000000
  C      1.044345    0.924850    0.000000
  C     -0.278679    1.366832    0.000000
  C     -1.323030    0.441736    0.000000
  C     -1.044345   -0.924850    0.000000
  H      2.365954   -0.790377    0.000000
  H      1.867461    1.654080    0.000000
  H     -2.365954    0.790377    0.000000
  H     -1.867461   -1.654080    0.000000
  C     -0.586592    2.875899    0.000000
  C      0.363502    3.800764    0.000000
  H     -1.656478    3.123943    0.000000
  H      0.144296    4.876932    0.000000
  H      1.433388    3.552720    0.000000
  C      0.586592   -2.875899    0.000000
  C     -0.363502   -3.800764    0.000000
  H      1.656478   -3.123943    0.000000
  H     -0.144296   -4.876932    0.000000
  H     -1.433388   -3.552720    0.000000

 Total Charge           Charge          ....    1
 Multiplicity           Mult            ....    2
 Number of Electrons    NEL             ....   69
 Basis Dimension        Dim             ....   60

ORBITAL ENERGIES
----------------
                 SPIN UP ORBITALS
  NO   OCC          E(Eh)            E(eV)
   0   1.0000     -11.310319      -307.7694
   1   1.0000     -11.310236      -307.7672
   2   1.0000     -11.289287      -307.1971
   3   1.0000     -11.289205      -307.1949
   4   1.0000     -11.244635      -305.9821
   5   1.0000     -11.244558      -305.9800
   6   1.0000     -11.218706      -305.2765
   7   1.0000     -11.218706      -305.2765
   8   1.0000     -11.215021      -305.1762
   9   1.0000     -11.215021      -305.1762
  10   1.0000      -1.344599       -36.5884
  11   1.0000      -1.246087       -33.9078
  12   1.0000      -1.176363       -32.0105
  13   1.0000      -1.172900       -31.9162
  14   1.0000      -1.135998       -30.9121
  15   1.0000      -1.013193       -27.5704
  16   1.0000      -0.985818       -26.8255
  17   1.0000      -0.908629       -24.7250
  18   1.0000      -0.906200       -24.6590
  19   1.0000      -0.827065       -22.5056
  20   1.0000      -0.812555       -22.1107
  21   1.0000      -0.786804       -21.4100
  22   1.0000      -0.763953       -20.7882
  23   1.0000      -0.736791       -20.0491
  24   1.0000      -0.735101       -20.0031
  25   1.0000      -0.711429       -19.3590
  26   1.0000      -0.702861       -19.1258
  27   1.0000      -0.682213       -18.5640
  28   1.0000      -0.645036       -17.5523
  29   1.0000      -0.629637       -17.1333
  30   1.0000      -0.610051       -16.6003
  31   1.0000      -0.602861       -16.4047
  32   1.0000      -0.532738       -14.4965
  33   1.0000      -0.511236       -13.9114
  34   1.0000      -0.476083       -12.9549
  35   0.0000      -0.043479        -1.1831
  36   0.0000       0.066673         1.8143
  37   0.0000       0.141245         3.8435
  38   0.0000       0.207800         5.6545
  39   0.0000       0.301656         8.2085

                 SPIN DOWN ORBITALS
  NO   OCC          E(Eh)            E(eV)
   0   1.0000     -11.298821      -307.4565
   1   1.0000     -11.298765      -307.4550
   2   1.0000     -11.283320      -307.0347
   3   1.0000     -11.283259      -307.0331
   4   1.0000     -11.252055      -306.1840
   5   1.0000     -11.251982      -306.1820
   6   1.0000     -11.234248      -305.6994
   7   1.0000     -11.234248      -305.6994
   8   1.0000     -11.196838      -304.6815
   9   1.0000     -11.196838      -304.6814
  10   1.0000      -1.323021       -36.0012
  11   1.0000      -1.224782       -33.3280
  12   1.0000      -1.179011       -32.0825
  13   1.0000      -1.168136       -31.7866
  14   1.0000      -1.098075       -29.8801
  15   1.0000      -0.998150       -27.1611
  16   1.0000      -0.970854       -26.4183
  17   1.0000      -0.908329       -24.7169
  18   1.0000      -0.897584       -24.4245
  19   1.0000      -0.827103       -22.5066
  20   1.0000      -0.807049       -21.9609
  21   1.0000      -0.777850       -21.1664
  22   1.0000      -0.759658       -20.6713
  23   1.0000      -0.735455       -20.0128
  24   1.0000      -0.733633       -19.9632
  25   1.0000      -0.698964       -19.0198
  26   1.0000      -0.678629       -18.4664
  27   1.0000      -0.652370       -17.7519
  28   1.0000      -0.640952       -17.4412
  29   1.0000      -0.624270       -16.9872
  30   1.0000      -0.608920       -16.5696
  31   1.0000      -0.563806       -15.3419
  32   1.0000      -0.506982       -13.7957
  33   1.0000      -0.495707       -13.4889
  34   0.0000      -0.156151        -4.2491
  35   0.0000       0.071432         1.9438
  36   0.0000       0.095317         2.5937
  37   0.0000       0.177652         4.8341
  38   0.0000       0.235379         6.4050

MULLIKEN ATOMIC CHARGES AND SPIN POPULATIONS
--------------------------------------------
   0 C :    0.092897    0.479946
   1 C :   -0.046346   -0.301382
   2 C :    0.013577    0.259040
   3 C :    0.092897    0.479946
   4 C :   -0.046346   -0.301381
   5 C :    0.013577    0.259039
   6 H :    0.116661    0.020998
   7 H :    0.127859   -0.019070
   8 H :    0.116661    0.020998
   9 H :    0.127859   -0.019070
  10 C :   -0.032488   -0.633952
  11 C :   -0.077552    0.762649
  12 H :    0.104205    0.045223
  13 H :    0.113580   -0.057614
  14 H :    0.087608   -0.055839
  15 C :   -0.032488   -0.633952
  16 C :   -0.077552    0.762648
  17 H :    0.104205    0.045223
  18 H :    0.113580   -0.057614
  19 H :    0.087608   -0.055839
Sum of atomic charges         :    1.0000000

LOEWDIN ATOMIC CHARGES AND SPIN POPULATIONS
-------------------------------------------
   0 C :    0.125247    0.434081
   1 C :   -0.023238   -0.260171
   2 C :    0.062873    0.242940
   3 C :    0.125247    0.434081
   4 C :   -0.023238   -0.260170
   5 C :    0.062873    0.242939
   6 H :    0.073027    0.015393
   7 H :    0.082316   -0.013784
   8 H :    0.073027    0.015393
   9 H :    0.082316   -0.013784
  10 C :    0.000356   -0.557291
  11 C :   -0.009363    0.688802
  12 H :    0.062869    0.033208
  13 H :    0.072538   -0.042348
  14 H :    0.053373   -0.040831
  15 C :    0.000357   -0.557290
  16 C :   -0.009362    0.688801
  17 H :    0.062869    0.033208
  18 H :    0.072538   -0.042348
  19 H :    0.053373   -0.040831

  Mayer bond orders larger than 0.100000
B(  0-C ,  1-C ) :   1.2844 B(  0-C ,  5-C ) :   1.2168 B(  0-C , 15-C ) :   1.1052
B(  1-C ,  2-C ) :   1.5418 B(  1-C ,  6-H ) :   0.9605 B(  2-C ,  3-C ) :   1.2168
B(  2-C ,  7-H ) :   0.9541 B(  3-C ,  4-C ) :   1.2844 B(  3-C , 10-C ) :   1.1052
B(  4-C ,  5-C ) :   1.5418 B(  4-C ,  8-H ) :   0.9605 B(  5-C ,  9-H ) :   0.9541
B( 10-C , 11-C ) :   1.6043 B( 10-C , 12-H ) :   0.9591 B( 11-C , 13-H ) :   0.9635
B( 11-C , 14-H ) :   0.9644 B( 15-C , 16-C ) :   1.6043 B( 15-C , 17-H ) :   0.9591
B( 16-C , 18-H ) :   0.9635 B( 16-C , 19-H ) :   0.9644

-------------------------------------------------------------------------------
SPIN ORBIT CORRECTED ABSORPTION SPECTRUM VIA TRANSITION ELECTRIC DIPOLE MOMENTS
-------------------------------------------------------------------------------
States    Energy  Wavelength   fosc         T2         TX        TY        TZ
          (cm-1)    (nm)                  (au**2)     (au)      (au)      (au)
-------------------------------------------------------------------------------
 0  1       0.0    0.0   0.000000000   0.00000   0.00000   0.00000   0.00000
 0  2 2317164.2    4.3   0.000000000   0.00000   0.00000   0.00000   0.00000
 0  3 2317164.2    4.3   0.015335682   0.00436   0.00000   0.00000   0.06601
 0  4 2371465.3    4.2   0.000000000   0.00000   0.00000   0.00000   0.00000
 0  5 2371465.3    4.2   0.000000000   0.00000   0.00000   0.00000   0.00000
 0  6 2371465.3    4.2   0.000000000   0.00000   0.00000   0.00000   0.00000
 0  7 2371465.3    4.2   0.000000000   0.00000   0.00000   0.00000   0.00000
 0  8 2375614.7    4.2   0.000000000   0.00000   0.00000   0.00000   0.00000
 0  9 2375614.7    4.2   0.000000000   0.00000   0.00000   0.00000   0.00000
 0 10 2405937.3    4.2   0.000000000   0.00000   0.00000   0.00000   0.00000
 0 11 2405937.3    4.2   0.000000000   0.00000   0.00000   0.00000   0.00000
 0 12 2426683.2    4.1   0.000000000   0.00000   0.00000   0.00000   0.00000
 0 13 2426683.2    4.1   0.000000000   0.00000   0.00000   0.00000   0.00000
 0 14 2426683.2    4.1   0.000000000   0.00000   0.00000   0.00000   0.00000
 0 15 2426683.2    4.1   0.000000000   0.00000   0.00000   0.00000   0.00000
 0 16 2428137.5    4.1   0.000000000   0.00000   0.00000   0.00000   0.00000
 0 17 2428137.5    4.1   0.000000000   0.00000   0.00000   0.00000   0.00000
 0 18 2451919.9    4.1   0.000000000   0.00000   0.00000   0.00000   0.00000
 0 19 2451919.9    4.1   0.000000000   0.00000   0.00000   0.00000   0.00000
 0 20 2451919.9    4.1   0.000000000   0.00000   0.00000   0.00000   0.00000
 0 21 2451919.9    4.1   0.000000000   0.00000   0.00000   0.00000   0.00000
 0 22 2463991.8    4.1   0.000000000   0.00000   0.00000   0.00000   0.00000
 0 23 2463991.8    4.1   0.000000000   0.00000   0.00000   0.00000   0.00000
 0 24 2463991.8    4.1   0.000000000   0.00000   0.00000   0.00000   0.00000
 0 25 2463991.8    4.1   0.000000000   0.00000   0.00000   0.00000   0.00000
 0 26 2464247.4    4.1   0.000000000   0.00000   0.00000   0.00000   0.00000
 0 27 2464247.4    4.1   0.000000000   0.00000   0.00000   0.00000   0.00000
 0 28 2464247.4    4.1   0.000000000   0.00000   0.00000   0.00000   0.00000
 0 29 2464247.4    4.1   0.000000000   0.00000   0.00000   0.00000   0.00000
 1  2 2317164.2    4.3   0.015335682   0.00436   0.00000   0.00000   0.06601
 1  3 2317164.2    4.3   0.000000000   0.00000   0.00000   0.00000   0.00000
 1  4 2371465.3    4.2   0.000000000   0.00000   0.00000   0.00000   0.00000
 1  5 2371465.3    4.2   0.000000000   0.00000   0.00000   0.00000   0.00000
 1  6 2371465.3    4.2   0.000000000   0.00000   0.00000   0.00000   0.00000
 1  7 2371465.3    4.2   0.000000000   0.00000   0.00000   0.00000   0.00000
 1  8 2375614.7    4.2   0.000000000   0.00000   0.00000   0.00000   0.00000
 1  9 2375614.7    4.2   0.000000000   0.00000   0.00000   0.00000   0.00000
 1 10 2405937.3    4.2   0.000000000   0.00000   0.00000   0.00000   0.00000
 1 11 2405937.3    4.2   0.000000000   0.00000   0.00000   0.00000   0.00000
 1 12 2426683.2    4.1   0.000000000   0.00000   0.00000   0.00000   0.00000
 1 13 2426683.2    4.1   0.000000000   0.00000   0.00000   0.00000   0.00000
 1 14 2426683.2    4.1   0.000000000   0.00000   0.00000   0.00000   0.00000
 1 15 2426683.2    4.1   0.000000000   0.00000   0.00000   0.00000   0.00000
 1 16 2428137.5    4.1   0.000000000   0.00000   0.00000   0.00000   0.00000
 1 17 2428137.5    4.1   0.000000000   0.00000   0.00000   0.00000   0.00000
 1 18 2451919.9    4.1   0.000000000   0.00000   0.00000   0.00000   0.00000
 1 19 2451919.9    4.1   0.000000000   0.00000   0.00000   0.00000   0.00000
 1 20 2451919.9    4.1   0.000000000   0.00000   0.00000   0.00000   0.00000
 1 21 2451919.9    4.1   0.000000000   0.00000   0.00000   0.00000   0.00000
 1 22 2463991.8    4.1   0.000000000   0.00000   0.00000   0.00000   0.00000
 1 23 2463991.8    4.1   0.000000000   0.00000   0.00000   0.00000   0.00000
 1 24 2463991.8    4.1   0.000000000   0.00000   0.00000   0.00000   0.00000
 1 25 2463991.8    4.1   0.000000000   0.00000   0.00000   0.00000   0.00000
 1 26 2464247.4    4.1   0.000000000   0.00000   0.00000   0.00000   0.00000
 1 27 2464247.4    4.1   0.000000000   0.00000   0.00000   0.00000   0.00000
 1 28 2464247.4    4.1   0.000000000   0.00000   0.00000   0.00000   0.00000
 1 29 2464247.4    4.1   0.000000000   0.00000   0.00000   0.00000   0.00000

FINAL SINGLE POINT ENERGY      -379.736044285855

DIPOLE MOMENT
-------------
                                X             Y             Z
Electronic contribution:     -0.00000      -0.00000       0.00000
Nuclear contribution   :     -0.00000       0.00000       0.00000
                        -----------------------------------------
Total Dipole Moment    :     -0.00000      -0.00000       0.00000
                        -----------------------------------------
Magnitude (a.u.)       :      0.00000
Magnitude (Debye)      :      0.00000

Rotational constants in cm-1:     0.153862     0.023555     0.020428
Rotational constants in MHz :  4612.665232   706.155435   612.402415

                             ****ORCA TERMINATED NORMALLY****
TOTAL RUN TIME: 0 days 0 hours 0 minutes 32 seconds 60 msec
