                         Program Version 5.0.0 -  RELEASE  -
|  1> ! NMR B3LYP sto-3g autoaux noautostart
|  2>
|  3> * xyz 0 1
|  4>  C       -1.4152533224   0.2302217854   0.0000000000
|  5>  C        1.4152533224  -0.2302217854   0.0000000000
|  6>  C       -0.4951331558   1.3144608674   0.0000000000
|  7>  C        0.4951331558  -1.3144608674   0.0000000000
|  8>  C        0.8894090436   1.0909493743   0.0000000000
|  9>  C       -0.8894090436  -1.0909493743   0.0000000000
| 10>  H       -0.8795511985   2.3437343748   0.0000000000
| 11>  H        0.8795511985  -2.3437343748   0.0000000000
| 12>  H        1.5779041557   1.9450061275   0.0000000000
| 13>  H       -1.5779041557  -1.9450061275   0.0000000000
| 14>  C        2.8845844962  -0.5210893778   0.0000000000
| 15>  C       -2.8845844962   0.5210893778   0.0000000000
| 16>  H        3.1403356810  -1.5919605685   0.0000000000
| 17>  H       -3.1403356810   1.5919605685   0.0000000000
| 18>  C        3.8800428103   0.3822535424   0.0000000000
| 19>  C       -3.8800428103  -0.3822535424   0.0000000000
| 20>  H        3.6946765858   1.4624389570   0.0000000000
| 21>  H       -3.6946765858  -1.4624389570   0.0000000000
| 22>  H        4.9316453546   0.0711049543   0.0000000000
| 23>  H       -4.9316453546  -0.0711049543   0.0000000000
| 24> *
| 25>
| 26>                          ****END OF INPUT****

CARTESIAN COORDINATES (ANGSTROEM)
---------------------------------
  C     -1.415253    0.230222    0.000000
  C      1.415253   -0.230222    0.000000
  C     -0.495133    1.314461    0.000000
  C      0.495133   -1.314461    0.000000
  C      0.889409    1.090949    0.000000
  C     -0.889409   -1.090949    0.000000
  H     -0.879551    2.343734    0.000000
  H      0.879551   -2.343734    0.000000
  H      1.577904    1.945006    0.000000
  H     -1.577904   -1.945006    0.000000
  C      2.884584   -0.521089    0.000000
  C     -2.884584    0.521089    0.000000
  H      3.140336   -1.591961    0.000000
  H     -3.140336    1.591961    0.000000
  C      3.880043    0.382254    0.000000
  C     -3.880043   -0.382254    0.000000
  H      3.694677    1.462439    0.000000
  H     -3.694677   -1.462439    0.000000
  H      4.931645    0.071105    0.000000
  H     -4.931645   -0.071105    0.000000

 Total Charge           Charge          ....    0
 Multiplicity           Mult            ....    1
 Number of Electrons    NEL             ....   70
 Basis Dimension        Dim             ....   60

ORBITAL ENERGIES
----------------

  NO   OCC          E(Eh)            E(eV)
   0   2.0000     -10.016008      -272.5494
   1   2.0000     -10.015960      -272.5481
   2   2.0000     -10.003957      -272.2215
   3   2.0000     -10.003956      -272.2215
   4   2.0000     -10.002842      -272.1912
   5   2.0000     -10.002840      -272.1911
   6   2.0000     -10.002193      -272.1735
   7   2.0000     -10.002050      -272.1696
   8   2.0000      -9.988136      -271.7910
   9   2.0000      -9.988136      -271.7910
  10   2.0000      -0.805859       -21.9285
  11   2.0000      -0.750367       -20.4185
  12   2.0000      -0.714277       -19.4365
  13   2.0000      -0.696399       -18.9500
  14   2.0000      -0.663776       -18.0623
  15   2.0000      -0.584981       -15.9181
  16   2.0000      -0.555627       -15.1194
  17   2.0000      -0.527925       -14.3656
  18   2.0000      -0.506341       -13.7782
  19   2.0000      -0.453973       -12.3532
  20   2.0000      -0.435657       -11.8548
  21   2.0000      -0.407616       -11.0918
  22   2.0000      -0.394212       -10.7271
  23   2.0000      -0.392450       -10.6791
  24   2.0000      -0.371085       -10.0977
  25   2.0000      -0.347603        -9.4587
  26   2.0000      -0.343664        -9.3516
  27   2.0000      -0.321080        -8.7370
  28   2.0000      -0.307879        -8.3778
  29   2.0000      -0.289993        -7.8911
  30   2.0000      -0.284487        -7.7413
  31   2.0000      -0.259992        -7.0747
  32   2.0000      -0.208973        -5.6864
  33   2.0000      -0.191640        -5.2148
  34   2.0000      -0.149512        -4.0684
  35   0.0000       0.041445         1.1278
  36   0.0000       0.094005         2.5580
  37   0.0000       0.114751         3.1225
  38   0.0000       0.186197         5.0667
  39   0.0000       0.276456         7.5228

MULLIKEN ATOMIC CHARGES
-----------------------
   0 C :   -0.004613
   1 C :   -0.004613
   2 C :   -0.076511
   3 C :   -0.076511
   4 C :   -0.076865
   5 C :   -0.076865
   6 H :    0.077829
   7 H :    0.077829
   8 H :    0.079174
   9 H :    0.079174
  10 C :   -0.076002
  11 C :   -0.076002
  12 H :    0.076515
  13 H :    0.076515
  14 C :   -0.154529
  15 C :   -0.154529
  16 H :    0.075909
  17 H :    0.075909
  18 H :    0.079094
  19 H :    0.079094
Sum of atomic charges:   -0.0000000

LOEWDIN ATOMIC CHARGES
----------------------
   0 C :    0.003559
   1 C :    0.003559
   2 C :   -0.043793
   3 C :   -0.043793
   4 C :   -0.044034
   5 C :   -0.044034
   6 H :    0.042119
   7 H :    0.042119
   8 H :    0.043665
   9 H :    0.043665
  10 C :   -0.038716
  11 C :   -0.038716
  12 H :    0.040931
  13 H :    0.040931
  14 C :   -0.091522
  15 C :   -0.091522
  16 H :    0.042896
  17 H :    0.042896
  18 H :    0.044897
  19 H :    0.044897

  Mayer bond orders larger than 0.100000
B(  0-C ,  2-C ) :   1.3634 B(  0-C ,  5-C ) :   1.3655 B(  0-C , 11-C ) :   1.0665
B(  1-C ,  3-C ) :   1.3634 B(  1-C ,  4-C ) :   1.3655 B(  1-C , 10-C ) :   1.0665
B(  2-C ,  4-C ) :   1.4651 B(  2-C ,  6-H ) :   0.9617 B(  3-C ,  5-C ) :   1.4651
B(  3-C ,  7-H ) :   0.9617 B(  4-C ,  5-C ) :   0.1021 B(  4-C ,  8-H ) :   0.9598
B(  5-C ,  9-H ) :   0.9598 B( 10-C , 12-H ) :   0.9595 B( 10-C , 14-C ) :   1.9014
B( 11-C , 13-H ) :   0.9595 B( 11-C , 15-C ) :   1.9014 B( 14-C , 16-H ) :   0.9667
B( 14-C , 18-H ) :   0.9695 B( 15-C , 17-H ) :   0.9667 B( 15-C , 19-H ) :   0.9695

FINAL SINGLE POINT ENERGY      -382.056223110779

DIPOLE MOMENT
-------------
                                X             Y             Z
Electronic contribution:     -0.00000      -0.00000       0.00000
Nuclear contribution   :      0.00000       0.00000       0.00000
                        -----------------------------------------
Total Dipole Moment    :     -0.00000      -0.00000       0.00000
                        -----------------------------------------
Magnitude (a.u.)       :      0.00000
Magnitude (Debye)      :      0.00000

Rotational constants in cm-1:     0.153923     0.022856     0.019901
Rotational constants in MHz :  4614.497946   685.205544   596.614430

CHEMICAL SHIELDING SUMMARY (ppm)
--------------------------------

  Nucleus  Element    Isotropic     Anisotropy
  -------  -------  ------------   ------------
      0       C          114.441        147.576
      1       C          114.441        147.576
      2       C          118.052        132.453
      3       C          118.052        132.453
      4       C          121.524        142.305
      5       C          121.524        142.305
      6       H           25.575          4.980
      7       H           25.575          4.980
      8       H           25.159          5.775
      9       H           25.159          5.775
     10       C          116.385        117.566
     11       C          116.385        117.566
     12       H           26.072          5.529
     13       H           26.072          5.529
     14       C          128.622        125.985
     15       C          128.622        125.985
     16       H           26.798          6.548
     17       H           26.798          6.548
     18       H           27.109          5.225
     19       H           27.109          5.225

                             ****ORCA TERMINATED NORMALLY****
TOTAL RUN TIME: 0 days 0 hours 0 minutes 26 seconds 945 msec
