                         Program Version 5.0.0 -  RELEASE  -
|  1> ! MP3 STO-3G
|  2>
|  3> %pal nprocs 4 end
|  4>
|  5> %scf ConvForced True end
|  6>
|  7> *xyz 0 1
|  8>   O      1.784914    1.262422    0.511985
|  9>   H      2.648237    1.072929    0.131631
| 10>   H      1.183168    1.256816   -0.238835
| 11> *
| 12>
| 13>                          ****END OF INPUT****

CARTESIAN COORDINATES (ANGSTROEM)
---------------------------------
  O      1.784914    1.262422    0.511985
  H      2.648237    1.072929    0.131631
  H      1.183168    1.256816   -0.238835

 Total Charge           Charge          ....    0
 Multiplicity           Mult            ....    1
 Number of Electrons    NEL             ....   10
 Basis Dimension        Dim             ....    7

ORBITAL ENERGIES
----------------

  NO   OCC          E(Eh)            E(eV)
   0   2.0000     -20.242233      -550.8192
   1   2.0000      -1.265747       -34.4427
   2   2.0000      -0.615339       -16.7442
   3   2.0000      -0.452291       -12.3075
   4   2.0000      -0.390844       -10.6354
   5   0.0000       0.600569        16.3423
   6   0.0000       0.736617        20.0444

MULLIKEN ATOMIC CHARGES
-----------------------
   0 O :   -0.361723
   1 H :    0.180857
   2 H :    0.180866
Sum of atomic charges:   -0.0000000

LOEWDIN ATOMIC CHARGES
----------------------
   0 O :   -0.250698
   1 H :    0.125347
   2 H :    0.125351

  Mayer bond orders larger than 0.100000
B(  0-O ,  1-H ) :   0.9549 B(  0-O ,  2-H ) :   0.9549

FINAL SINGLE POINT ENERGY       -75.009120633869

DIPOLE MOMENT
-------------
                                X             Y             Z
Electronic contribution:     -0.06749       0.05033       0.29178
Nuclear contribution   :      0.21773      -0.16239      -0.94154
                        -----------------------------------------
Total Dipole Moment    :      0.15024      -0.11207      -0.64976
                        -----------------------------------------
Magnitude (a.u.)       :      0.67625
Magnitude (Debye)      :      1.71890

Rotational constants in cm-1:    27.172637    14.432751     9.426085
Rotational constants in MHz : 814615.168427 432682.991980 282586.906303

                             ****ORCA TERMINATED NORMALLY****
TOTAL RUN TIME: 0 days 0 hours 0 minutes 5 seconds 944 msec
